# vtk DataFile Version 3.0
d-2__ created by libgimli-v1.5.3-53-g6241cfab
ASCII
DATASET UNSTRUCTURED_GRID
POINTS 2289 double
-4.9604890280755	-4.041360101199	0
-3.2077846555873	-5.1962648730315	0
-3.176540557689	-2.4407072810268	0
-4	0	0
-5.9390179068653	-2.1707007930889	0
52.665380245015	-1.8065112831122	0
54	0	0
52	0	0
48.097685778844	-5.9417305191543	0
46.516763906791	-7.505098571114	0
48.937079888254	-7.8132764173197	0
46.486563771099	-1.0472604966308	0
45.520915910558	-1.1901298808306	0
46.321644728948	-2.6172580530736	0
-9.3255754389036	-4.5280504617903	0
-8.505920766152	-2.2229124192564	0
-10.771384652682	-2.3436009096987	0
58.99156202167	-2.0547014208169	0
61.162695641288	-2.0290708705453	0
60	0	0
-1.0674631720675	-1.7207932295681	0
0	0	0
-2	0	0
57.081525605537	-1.7763836377678	0
58	0	0
56	0	0
2.9441038123538	-1.6991231565746	0
4.9584679917133	-2.3162161218333	0
4	0	0
47.589347831534	-1.4285276672424	0
47	0	0
60.196544149771	-4.5671461888943	0
2	0	0
14.726302964379	-2.3374887948328	0
14	0	0
12.812000229009	-1.4717519471188	0
36.812441476359	-1.472723040679	0
36	0	0
35.056707510516	-1.654860577479	0
43.886356987389	-2.4067124754746	0
43.004935113208	-1.4434035433217	0
42.605383535397	-3.2185355644608	0
6	0	0
6.9874701706652	-1.6887560576261	0
8	0	0
20.788593228806	-6.992013889157	0
18.588136980556	-5.9267958280248	0
18.743490010573	-8.6571221068447	0
12	0	0
11.217196244899	-1.5189624521324	0
10	0	0
33.138563961916	-1.6798525708391	0
34	0	0
32	0	0
48.721091075935	-3.5322894663766	0
16	0	0
54.881778448292	-2.9249737927488	0
25.868012529265	-4.2367918948585	0
24.947366396568	-1.907645608509	0
23.602081323365	-3.4946140318809	0
17.207284928756	-1.9739474657053	0
18	0	0
19.040598102694	-1.6129863791988	0
63.170730983349	-1.7607813317073	0
62.633917187437	-3.7535062466739	0
57.537225234575	-3.8947423588556	0
56.059881206191	-5.4915714523549	0
58.05352480699	-6.453236288508	0
23.144244438833	-1.5923711107083	0
24	0	0
50	0	0
49.000460615462	-1.3578170827055	0
50.690711814377	-1.824596349974	0
26	0	0
27.038589336728	-2.0669548201212	0
51.755212370188	-4.2411157524206	0
44.505844029602	-3.8943908193054	0
44.925730006319	-2.2634632105649	0
28	0	0
39.516634119415	-8.7058386916873	0
41.471039430311	-7.8619834210426	0
40.0512585824	-6.3923664703936	0
31.243272219924	-1.8790321133923	0
38.725553479946	-2.2392107430782	0
36.286810094362	-3.4615049513587	0
38.298478411878	-4.8582671961639	0
48	0	0
31.714589050642	-7.205926331343	0
29.189754348937	-9.1674259171852	0
31.806004311304	-10.09452785681	0
62	0	0
38	0	0
44.389679347576	-1.2161432653255	0
29.197367128869	-2.065347643897	0
30	0	0
30.698306668528	-4.2650047816789	0
41.148295973601	-1.8234039481837	0
42	0	0
40	0	0
28.201230735726	-4.1388466651044	0
45	0	0
60.421462218016	-7.5847939886727	0
66	0	0
66.878336504864	-1.7736882879915	0
68	0	0
84	0	0
84.826074936756	-1.7377376224615	0
86	0	0
46	0	0
64	0	0
65.011728385164	-1.6722185235516	0
32.997129018994	-4.9219896170977	0
40.559178653524	-4.0404613407856	0
64.494421966028	-4.8036375062881	0
66.767600186162	-5.3331107928692	0
65.80544139484	-3.3574197472557	0
68.988927273359	-2.1304934826009	0
70	0	0
81.155422366193	-2.4778168802881	0
79.044597100607	-1.6466578363643	0
78.992828969804	-3.4038253466518	0
42.535254571983	-5.7041763590699	0
44.769509063643	-6.0912308780549	0
70.936624628486	-1.6044761981261	0
34.272160771358	-6.6314163671335	0
46.490941332224	-4.9415610481084	0
82	0	0
83.107303510304	-1.5000697919039	0
72	0	0
77.06584753078	-2.3201094853928	0
76	0	0
74.983458969846	-1.7269028494198	0
0.92168167145299	-2.2780019874605	0
-1.0937117075574	-3.8542516737592	0
0.80346096168985	-4.7045195287145	0
86.950699215175	-2.1508820695771	0
78	0	0
80	0	0
74	0	0
9.1574005505125	-2.6231287392139	0
88	0	0
88.910020017547	-1.6140569900811	0
90	0	0
12.115475611978	-3.4936095430285	0
18.828823087675	-3.5403508678111	0
21.15824490386	-2.5402251154256	0
94	0	0
92	0	0
92.928528896274	-1.8376490676142	0
16.632275947553	-4.3353438582912	0
92.737001504617	-4.441120570832	0
90.379587219092	-4.6317226179353	0
90.92538006151	-6.6970313209273	0
96	0	0
95.058733007806	-2.4045947706089	0
20	0	0
22	0	0
93.473842696723	-7.8074809791554	0
95.491310978024	-5.2955731252462	0
72.897619284078	-2.2896631008568	0
70.781694711825	-3.5706767834604	0
72.59509639015	-5.0336579178015	0
6.8151599256395	-3.4863522822911	0
90.825389426837	-2.3138120894669	0
88.752071250681	-3.5722990177596	0
96.195177203174	-7.75629344268	0
83.542552115012	-3.2507703024015	0
67.457222993558	-3.4166050851802	0
68.833164880023	-4.4442109352316	0
21.645440346131	-15.759992295654	0
19.787515658016	-15.043176307645	0
20.472956803304	-16.963740194291	0
53.972061306044	-6.1065839929043	0
55.876871722488	-8.0020494080931	0
20.334952664767	-4.8430234612026	0
22.261931472799	-5.1781021190681	0
7.8533452384824	-5.3741321048362	0
2.8293729991477	-3.8734870857533	0
10.256524665335	-5.3783283242102	0
44	0	0
80.210915391989	-5.1371301287653	0
74.940725472486	-3.9945048583565	0
82.300842554261	-4.7498987325655	0
34.7819113924	-4.8323803233491	0
77.463712003813	-5.3690496140611	0
79.288840232903	-7.5076180643667	0
9.1187604338927	-7.5093122489135	0
32.437112773597	-3.2114500650766	0
34.112933332995	-3.299464081851	0
14.30487911719	-5.0704110224045	0
64.221959105877	-3.0816521204137	0
86.777769907224	-4.5657601377556	0
85.326574534922	-3.4535760462031	0
5.1052021437801	-5.3925263141949	0
13.889338699651	-7.0529418658964	0
12.327846365558	-6.0453487984453	0
12.425323257266	-8.065166002589	0
24.195554980216	-5.469730744575	0
23.460838209567	-7.7075322404514	0
16.119764906801	-7.1591998946778	0
64.948425532967	-7.0919793473012	0
67.231714124983	-7.697467337819	0
88.605466617354	-6.0576491171045	0
84.510249064674	-5.5132729901299	0
27.288291587069	-5.7927430598748	0
29.099775422328	-6.3478787759074	0
62.5983926867	-6.1578114361138	0
36.259619561094	-5.8254283747974	0
-0.87072908359822	-6.6989447852444	0
37.950612500225	-7.1535767117288	0
35.996150304248	-7.9858297248267	0
37.596138833953	-9.1373506889709	0
72.340481046819	-10.256728177924	0
71.920374457326	-7.306889633481	0
69.657223872069	-8.2482123904004	0
86.489045164431	-6.5923350416148	0
70.400178030421	-5.8337097114019	0
27.502548036128	-7.4970220758562	0
26.13243266924	-9.3685183880883	0
6.661514829887	-7.8415479497809	0
58.296610643307	-9.0333163524094	0
82.055202306525	-7.2899329185841	0
84.978898115353	-8.4699251578911	0
68.585199812211	-6.3344854268033	0
67.757452269106	-9.6365705192629	0
65.669446372443	-9.4594955836215	0
62.950863193304	-9.0120428907083	0
103.70868080718	-12.32080215508	0
102.18436366158	-14.010926298849	0
104.14423680512	-14.748998727238	0
64.267040809534	-11.124508265927	0
66.882712792434	-12.123721206145	0
69.337222070374	-10.615500137575	0
60.461460231931	-10.233653969717	0
90.446018890778	-11.802013346036	0
92.613772105348	-10.398280345587	0
90.936029419648	-9.1258967059237	0
87.490721478701	-8.2084666098018	0
15.380181895801	-36.797269896728	0
14.210386107188	-36.341053462548	0
14.863610535704	-37.541748308688	0
10.957303285125	-7.2053246043609	0
10.65272381912	-9.0314274942049	0
2.211545177533	-6.7737880013885	0
4.3768870340611	-8.0080360908126	0
8.3264428239848	-10.219289458696	0
4.3475765699481	-13.703820157174	0
6.9466349564894	-14.677639901802	0
6.8057667085689	-12.448698253535	0
12.441465256186	-12.793159599351	0
10.624777386877	-11.062308257899	0
9.2547852117109	-13.15006462774	0
74.598429735861	-7.1414572915728	0
74.818514278978	-12.433776500304	0
75.765759215099	-9.9498862304185	0
77.097059791345	-7.9572051872436	0
84.943844982675	-11.281754414257	0
86.724397013533	-10.064191670792	0
70.020561875931	-12.735654582836	0
68.387345898627	-14.544981679034	0
87.418050327132	-12.336510821476	0
88.746704455048	-9.9548151222035	0
89.351521229977	-8.0248786467702	0
98.266560141294	-8.9736895065022	0
95.376862567812	-10.893396668829	0
91.439577046394	-14.34284529303	0
92.799378375247	-12.323665538839	0
99.396885139998	-2.3979821696929	0
97.110585206693	-1.6664502881092	0
97.088473465424	-3.5199723699227	0
82.568900629477	-10.20329669395	0
80.482087514803	-9.3423347304726	0
78.35737075454	-9.7942623619742	0
101.24513948711	-19.106023848373	0
99.259178846227	-17.564051482274	0
98.980181479272	-20.119467080648	0
98.344910990761	-5.791748571641	0
76.424951925102	-14.259594864799	0
77.347581929399	-12.048441592301	0
101.29880193828	-4.9119924168346	0
106.01482996892	-10.454336718276	0
102.81271029082	-9.537238345088	0
74.437260037205	-14.497153726249	0
100	0	0
98	0	0
23.65972569182	-10.525743840519	0
21.300764569215	-9.625252210186	0
21.887595638344	-11.771031005643	0
5.1682817719642	-10.494450616785	0
14.259150613896	-11.022419902383	0
14.263802316959	-8.9264345817549	0
12.447622958539	-10.143715086249	0
80.114875480083	-11.86425107977	0
25.743537665295	-6.682000405628	0
21.631498701131	-13.773816846497	0
19.170583358617	-12.083523532606	0
25.437799382673	-11.796676305735	0
27.885676169281	-12.124272067279	0
33.943017929294	-8.9158448421793	0
23.651021584765	-12.843676935998	0
15.733761593016	-13.11617451703	0
17.784394367388	-14.568297009186	0
22.801448167328	-17.872087615681	0
23.496477997612	-15.146802937577	0
30.167729196324	-11.4541561055	0
31.916094506264	-12.452200832128	0
33.917198091168	-11.301677869574	0
16.387671502835	-10.155718934938	0
54.607636278423	-9.8482303790903	0
53.727359139116	-8.3604000898425	0
35.981500124254	-10.21873211789	0
41.393442639382	-12.467543431608	0
38.582758583974	-11.56164747958	0
40.000861735487	-14.374262120013	0
41.457525082178	-10.111266048003	0
-8	0	0
100.64654661782	-7.6723918609439	0
102.78411176019	-6.8474258298748	0
49.839036819443	-13.593595437809	0
52.610507893996	-14.219103665034	0
51.877003225463	-12.10482723833	0
49.811608989834	-5.8289861458321	0
51.545828216129	-7.5652369220799	0
49.958997083702	-10.388996850402	0
52.668643017957	-10.089772093232	0
-3.6724719594775	-8.0158630409575	0
15.671387189901	-17.04997563594	0
16.109843118263	-18.583013306775	0
[...]
CELL_DATA 4409
SCALARS Coverage double 1
LOOKUP_TABLE default
0 51.51752123225 1.9251529514478 11.794182859045 11.190409635665 0 6.5397020289639 10 10 2.9338657505262 5.7605259653035 0.58341609065353 1.9429774105518 6 0 5.7692408299334 0 4.9845193849617 1.1168033116923 0.8404460371967 2 0 0 8.3471259541891 1.3309919237657 3.6991464189877 2.5044982980361 1.1569362014136 0 1.702090148564 0 5.5690491943914 0 4.0040650375805 0.57830409597738 1.0555914054938 5.2919330622527 2.6955587745646 0.80575291655905 2.2796080127678 0 7.6343374741008 0 2 0.80018258505195 2.5713389745141 8.5861256962173 2.1649537703068 0 2 3.2552692893299 1.1936654610325 2.4474176239495 11.209812095372 4 6.0511780788552 0 3.9093123851637 0.34017419623737 5.6841877979439 1.0492972814315 0 1.2603850323578 0 3.7705541492076 1.9544587782443 17.879716540056 9.120954818554 3.6380345363131 0 2.9239372025139 7.044009588236 5.5881868507897 3.9596947048878 2.1668192871381 7.3045599746556 8.2239901484998 2.348825159819 3.3083905724707 9.5980772782878 0 7.1879404809382 10.600866908571 2.6183987296477 0.95241328366566 0.96243325107465 8.3971160285441 5.854006886558 0 1.0009947105427 0 0.95187666352168 0 9.6860924915585 1.0019417544599 7.7600419587956 2 7.1795495909124 4.974997569738 2 1.8529210451518 4.0015940187415 1.4542232196381 4 6.1980539932375 8.0729707074508 4 5.1376624360734 0 8.0564679833136 3.6892460105788 3.6860924915585 0.93837320134834 6.4624839456541 0 0.90291790981662 1.2766106476799 3.8146744375918 3.3094148228894 1.7156599285622 5.9240353689875 6.3654480815122 1.8258559777679 0.48548858071294 54.239903634571 1.7264648103277 2 0 0 0 0 0 0 0 1.0961726012544 0.42009869834886 7.8091028502952 0 2.8594613354271 8.4796345134868 0.95646605430843 1.0772118410753 5.5401120786199 1.6341123215786 8.7864162821693 0 1.8288147480743 0 2.1449813948642 0 1.8001500003107 3.1262528326822 2 2.4866298943217 4 1.5345047766589 5.6244410542607 0 5.0235143212224 1.5790952020607 10.226069455087 0.49682649113554 3.997911922952 0.97314413116278 2 8.9249129218076 1.9578802231048 0 4.9815561286197 3.1355659821084 2.8192283864653 0.93492999503814 1.9746308584804 2.0256847277646 2.1668192871381 0.4902130334112 3.8244513880579 2.3385871272984 8.9684833587524 0 5.678768574533 5.0851545795915 1.7998788165144 0.47252890902959 2.906033682116 11.024769079869 2.4071958387389 1.5669385131805 4.2770491124949 1.8627623321569 7.7202770893178 0.8936723874206 2.2043586339184 0 2.2051114258445 6.5263992337979 5.6435657685783 4.6197115115313 4.8431873040383 2.2891834952404 0 3.3880090939121 2.1229758591354 3.6071368560108 7.3790129600919 6.4729327009313 0 2.789624649629 0 6.6118768518416 4.9527851845871 5.1132771821511 3.9804725964368 2.0177200853988 2.4461494709682 0.97600176091855 3.5070397772403 2.8865539000521 2.3226172730911 1.8682212634631 3.1116490608985 2.6349326379979 15.264411976584 4.6924502863716 0 0.7949215371607 0 1.9355153295834 5.45521738209 4.5473356799256 2.3215984920977 4.9101092875953 3.248936375041 0.98458219307356 2.256407136891 4.9650125987689 5.3733376642911 3.5955293186593 8.2351914559114 9.7190189173459 4.9472242649848 3.3736303360791 2.4474176239495 2.2051624424013 0 5.0372056586315 0.58323599533793 3.0705581887695 1.7386518040271 5.7944619831837 7.8581469913482 1.8283657900143 5.4298394333275 2.784461009588 3.8250313615678 2.0866565649392 6.2643050608635 5.1855992011151 1.0318819746233 0.61138624924551 0 4.6449090321856 0 2.3023422724955 4.3580058823182 4.9510566710166 2.6748752586033 0 2.1819910499927 3.080108619789 2.4748745786805 1.9698659456376 2.0368047879181 1.6702632605268 3.4139625596785 2.9935456057218 8.9181449029532 5.3917966547701 8.127752857555 4.9440800882824 0 0 6.0466356463733 4.6753672939258 0 2.9832161363231 0 1.4635479604324 4.1915270367835 1.9567846283228 2.585660906879 9.7302995132695 7.69357697459 2.1482926362778 46.676014873784 1.8252094902342 7.6430032371009 4.1728258510347 3.8757013306463 5.7283013492705 4.2752488988546 2.7189273335721 4.4832374944441 5.678653201277 5.7154325762017 7.1647236062417 2.5262232815618 1.0584488956949 2.0571886359881 4.1464941970468 1.2187143809724 7.8185928693732 1.0413790394595 3.5590704289051 1.9419543228517 2.0849137005347 0 4.8918057298267 6.8109660889375 0 2.3168069293988 16.630703007299 4.7055798893197 5.5932752144226 2.1829174982724 11.551303938788 2.2538875116932 1.8698342853101 2.0590795844368 8.9570347764459 12.804995280717 4.0311898937802 5.8016160108553 0 3.152836638233 4.2338713316244 10.545741045305 0 4.6122357275824 2.8964155617406 2.5617208719215 0 7.7640851746775 0 0 50.705707262723 0.63124790862352 7.605132721333 3.4691701458766 3.48045717065 3.3862591069542 8.8048563528562 4.063381762249 0.96996962392539 4.5750876681945 6.2255560139684 2.7439774677158 3.197970246752 7.2593474718597 1.0420942285946 3.5753402219515 2.3847862420728 3.8202271189925 6.7361823724975 2.1505846788466 0 5.9421593740844 3.3654620255276 1.9917271984941 3.0200426140025 0 5.0112487071963 4.8647479545567 1.9110838347082 7.4806546244218 2.1733587926168 3.3079025545272 10.011766323481 6.1929431941215 2.4166603481388 1.8653305995228 2.6800181574564 3.0824014697082 5.7430217700955 0 4.2755919782208 1.6076961655363 12.803390675579 0.75115608184557 4 0.57280852441349 51.966932929364 0 3.4215343263556 14.950426958388 4.2067622558582 1.4002421817407 3.0685482995598 5.2474279001682 2.7920732967774 1.6195410750919 3.0061336372455 1.18790475628 1.525632778096 2.9860177333093 0 3.219476785516 2.0836151964547 0 8.0797383495325 5.2135970607468 6.7361210347027 2.2670611260654 6.6715710440752 0.64018820746549 0 2.4796041053635 3.6468964054752 10.435534721224 3.3854141495311 3.6528726121578 0.97839231416138 0.95527456224145 1.5410494819827 0.51030501866095 1.8941511023958 2.9634687333513 3.011255169072 7.795280218479 3.4256090118443 0.96843923005386 5.0949411849784 0 4.2744942608359 5.3999649707931 0.91268612310038 0 2.4492197507597 10.632676409309 5.7736486148902 11.191083891554 3.277994529611 3.9030629357828 1.4226400765229 0.91248306657304 4.2362467929363 1.366298014402 6.8836842714433 2.7084634761715 1.8174946008341 5.7588110007725 3.8677093614356 1.021441348049 6.2769391456798 11.653409258555 1.9373996943276 8.6301988252872 0 1.872842603325 0 0 0 3.2395071699185 0 1.5057286006961 2.7125101273182 0 0 2.8883309063437 5.6144015677739 0 2.4722720001993 0 0 2.797263932672 0 2.4489300311301 0 2.2841582873381 0 2.291234097654 1.9568750175774 1.1146083462225 2.7124154364069 2.4480623999407 14.365415657998 0 19.336982749821 0.68792223709654 2.931603396729 2.6518074284249 41.329002313466 5.1159248495143 0 3.4139625596785 36.067600387726 0 1.2645956860047 8.9004581144142 5.5375082407334 22.94100071777 74.031065782805 0 1.5084542957145 46.662473368171 0 10.186622681453 20.611575315277 41.733209736386 22.94100071777 0 4.0969206523406 0 3.0757561269234 0 0 19.336982749821 0 39.893505482577 0 0 1.3354837311393 0 8.7279318593513 0 0 0 6.5343299018453 0.9942841695373 5.1743711894317 2.4293116126379 3.3371287645904 7.650588661169 2.164980553918 0 2.164980553918 7.3168159356695 18.87821583719 1.8198735780751 18.548153394918 7.4391477497694 2.2411936030896 14.109922514649 3.9949548598171 2.8371126303139 2.3614610199535 1.1975222691485 4.8549039439432 8.7673166267068 8.9295382048476 4.2203455306138 2.4574926661194 0 4.3294245717364 6.4898252159357 8.0893695715569 4.2786207538926 7.5725136028597 0 4.2709349312975 7.0550904893769 3.5774054460505 4.129092139753 2.6029416956187 2.4574926661194 0 5.7779398887345 9.2868342434126 11.552397496217 9.8365037046585 5.8159802830152 1.6346734939669 3.7041691287021 4.6014226098525 8.1124597266351 9.4850784542988 8.8063337700056 19.055101230843 9.4694988750702 7.1843564183379 7.5405656299229 1.2849082232607 0 5.5487380880376 4.8125131645882 3.2665725556929 3.30642777362 7.0992129298957 8.3792289370336 2.025270867872 5.6300358480479 1.5406656384142 6.6966862461503 7.1767387018903 0.52948481021509 4.6356104647668 4.1396953764445 4.0010048768831 0.9530752382792 3.4874003958292 0.93012123576584 8.641799461307 3.7179623641061 10.572381715044 7.0322225673194 7.902370840186 9.1506833045412 1.0811064955187 1.3431031583032 4.9907708729759 22.339435995426 0.72487773825282 2.3872721163816 3.2151910129044 3.0010220490827 5.3538489812336 15.674008480727 4.8615791916318 9.4423132058447 11.993913098483 7.7334068114196 21.225777074438 9.0228864864354 2.0377178225081 0 0 0 17.218857289638 0 6.8616350905994 1.3354837311393 0 0.52653998018975 21.521780293742 19.693927444187 15.327355700986 4.5718912325693 6.3136062091002 5.3743532862878 5.0146558985239 0.9364201920476 1.9121971441602 5.6209624480511 9.6452231743703 0 24.557992864398 4.1826931423743 26.081707341475 5.9103499746968 0 11.771985729678 5.3810453890181 4.4699717380763 11.85602772453 6.657261709487 4.4568922902391 3.6442720883605 6.161796802462 9.8060496717849 4.8257768343321 2.5074287289055 6.6610115266666 4.946633783313 3.0934602779496 1.1579333511265 7.6179069576455 1.8561047271088 2.8769090211577 0 8.5451250785332 7.0684352491371 3.6938603073941 7.5078080514994 6.4173889529728 1.9981519974506 3.156452905928 7.2788763178489 3.3080783738871 1.1151808347907 2.3409932809534 0 6.4770256986093 2.7764616230602 0 0 0 7.8561255107701 0 0 0 31.052748898979 0 0 0 0 0 0 0 0.55996449485581 0 0 0 0 5.2383794789394 0 13.976358611043 5.2762537345885 21.851843855927 11.490021001688 2.2373646612127 0 3.4868930173299 2.4773667970905 3.1409727768809 2.153373545187 4.5479009034805 7.9188090737544 0.8242835503111 5.3383346362785 5.5285813598106 5.0358157085318 13.595358804069 0 5.5632514753614 4.5385659035458 7.9484780519775 3.0559393864458 7.9004446800981 2.0038744287205 4.3661398698358 9.2672073688796 4.5413447203721 2.2303616695815 7.6187337576396 12.424770143372 6.9610220725831 0.94008541748432 3.8708373200828 4.999067026171 4.6631031577934 2.1655274729246 16.881275229966 0 0 0 8.1144488390874 0.92929091205844 0 3.1324330722511 8.8016490245046 7.7715010244863 1.8914187642247 13.257576102203 2.3407099598794 41.219279382949 39.920224821039 1.1610851801407 2.0172355540132 0 12.371415852759 13.67309579682 15.284444060157 1.5666826518984 32.979945208918 39.06245016724 7.1252289547974 10.739102567936 4.0046264067535 2.5730430755992 6.6505192264583 4.9596998075418 12.22085768418 0 2.1471210935864 3.3355349164127 10.935021657331 10.957277733972 0 23.785362592521 10.953913451181 0.69773076480414 1.1804758222504 20.09337360333 0 8.8981887497288 0 11.044391431792 34.646537595731 9.2203453029144 0 0 4.7529075302346 12.696361401113 2.1846181802338 0 0 11.217995298272 7.5259399931203 0 0 0 7.0507892102447 29.30968564839 0 0 0 18.306787309975 0 2.6944923074111 0 22.332047674768 0 0 0 0 0 0 0 0 0 0 0 0 0 0 0 0 0 0 0 0 0 7.9665853760418 6.0793967002985 0 0 28.884064230202 2.3929069213628 3.4583953057834 5.7919673105427 4.6721274141889 0.48214440241915 0 1.8288907113598 6.7298172027786 6.9168024827504 1.6945530858048 4.7975670461249 3.7325532164958 2.222721164479 3.6630509542408 9.1460560604696 0 2.804104917716 11.063631157495 2.0499702033015 6.372178913665 9.4923863473611 3.0976729229416 4.9680656482424 17.647172879775 22.215996685544 0 1.0952447319272 10.187721161257 5.0268580650837 1.3348734081991 0 0 0 0 6.2443458826385 26.22857478006 0 0 0 0 0 0 0 0 0 0 0 0 0 0 0 0 0 0 0 19.392792250058 0 0 6.0433041512854 0 31.294784384293 0 0 0 22.169468456194 0 1.1562556019388 0 0 0 2.13265535376 0 0 0 1.5243779776838 0 22.557563095301 0 0 0 5.1642378642434 0 19.379516297117 5.3743532862878 0 0 0 48.604943139819 0 1.0562908700176 0 0.98869953758197 0 0 4.6010961721418 5.2906946845615 2 0 0 2 0.95450878865734 0 0 0.48214440241915 6.9581603907329 5.5733630799247 3.6004735149073 1.1804881286043 5.070365750825 2.3165603781663 2.6781725338035 5.6697798217495 13.531789627961 2.2526496827444 6.0594063993382 7.2063246990309 0 2.023753299918 5.1666086306872 5.2204011431103 2.5326859805242 2.516309487986 7.8499265323279 3.6266775359865 9.7327292124564 8.4907185574255 0 12.640992699701 5.2967798320646 7.2834966361274 11.311305462659 2.8371281463371 7.2739271189066 7.2158852404335 1.1831300647238 3.2149082542193 0 8.0320273347806 4.6973081656948 5.9244216786317 0.9198896818764 0 0 3.0387069595837 0 8.4352987003454 2.6244618266917 7.8254677070603 4.8563724541348 9.8494968935029 2.3921694613794 7.2697194840873 10.590500355255 6.4725198239486 1.1723719673578 0.27820651670487 3.1417299472689 3.8263576618397 1.042045279983 6.3808277915043 3.847776239324 0 3.3427345431008 8.2227669617183 7.8316394222599 20.835376805752 6.0636880820408 0 0 0 4.8014850709642 0 0 0 0 1.9556851117752 2.9875873428417 5.0864539914269 5.0653312365639 17.317700044189 0 0 0 0 3.8528350666688 0 21.193404786097 15.442913964298 1.0180233103599 8.321601950921 12.726170621684 2.5067184192226 8.5807325333235 19.031019821276 4.2475268704701 0 0 0 0 36.683601713584 0.66968712381722 11.920242368418 4.0970809690607 2.9171572188901 20.801533582925 0 0 0 0 2.1165718168774 8.746152373114 0 2.0492191402433 0 0 0 3.1190106331483 14.425830132824 0 0 0 0 0 0 0 0 0 0 0 0 0 0 0 0 0 0 0 0 0 0 0 0 0 0 0 0 0 0 0 0 32.109526062228 15.004268687547 5.1427946022577 2.5376568682481 0 10.614541763695 5.3824049297162 4.4347877009368 13.973245066762 12.779835941262 5.1911041574653 5.5573823624583 8.7990754246467 12.518686773231 2.1178559750945 38.856405004602 22.087318877732 13.845433301525 18.243402019817 1.0424370342798 0.62182536931013 29.282795050377 0 0 0 8.9968220307416 28.758279747014 6.4759248595936 15.803675934104 2.2581524169001 7.676846864623 3.1222649749787 8.5033369012276 8.0892045676746 11.674012125214 6.8923438721932 3.9825329277881 2.4986886506524 6.6286300940149 5.1483236585154 10.238839314833 5.1484929513073 3.5791034519316 6.2273615022573 6.0159135750621 7.9011676456967 15.858786399682 46.635285128784 10.485088545979 5.1611067653218 13.369696048692 8.7191251934725 10.462950232167 5.8689601475468 5.1481881958442 4.3740170909482 21.82655479553 14.590319405441 0 10.399260631756 7.4844313603812 0 15.16582039408 0 0 16.118029855263 5.3805557942336 0.95425105867916 0 17.750943948928 0.95708322477623 16.56859610014 8.3840426841291 0 20.478537473707 0 0 0 0.52334082143897 0 0 0 0 0 1.1265815263563 0 0 0 0 2.1258789770473 2.6925875544311 0 0 0 0 0 0 0 0 0 0 0 1.5044400125004 0 0 0 0 0 0 2.1602344327218 0 0 0 0 0 0 0 0 0 0 0 0 0 0 0 0 0 0 0 0 0 0 0 0 0 0 0 0 0 0 0 0 0 0 0 0 0 0 0 0 0 0 0 0 0 0 0 0 0 0 0 0 0 0 0 0 0 0 0 0 0 0 0 0 0 0 0 0 0 0 0 0 0 0 0 0 0 0 0 3.5840202680212 0 0 0 0 0 0 0 0 0 0 0 0 0 0 0 0 0 0 0 0 0 0 0 0 0 0 0 0 0 0 0 0 0 0 0 0 0 0 0 0 0 0 0 0 0 0 0 0 0 0 0 0 0 0 0 0 0 0 0 0 0 0 0 0 0 0 0 0 0.64673348165967 0 0 0 0 0 0 0 0 0 0 0 0 0 0 0 0 0 0 0 0 0 0 0 0 0 0 0 0 0 0 0 0 0 0 0 0 0 0 0 0 0 0 0 0 0 0 0 0 0 0 0 0 0 0 0 0 0 0 0 0 0 0 0 0 0 0 0 0 0 0 0 0 0 0 0 0 0 0 0 0 0 0 0 0 0 0 0 0 0 0 0 0 0 0 0 0 0 0 0 0 0 0 17.243275163609 0 21.816891281315 0 0.55178560758963 0 0 0 0 0 23.878999208743 0 0 0 0 0 0 0 0 0 0 0 0 0 0 0 0 0 0 0 0 0 0 0 0 0 0 0 0 0 0 0 0 0 0 0 0 0 0 0 0 0 0 0 0 0 0 0 0 0 0 0 0 0 0 0 0 0 0 0 0 0 0 0 0 0 0 0 0 0 0 0 0 0 0 0 3.9711961576628 0 0 0 0 0 0 0 0 0 3.8948321092554 0 0.51115096839715 0 0 0 0 0 3.0168165240939 0 0 0 0 0 0 2.8951049692605 0 4.1013210717602 1.4199194643678 0 0 0 0 0 0 0 0 0 0 0 0 0 0 0 0 0 0 0 0 0 0 0 0 0 0 0 0 0 0 0 0 0 0 0 0 0 0 0 0 0 0 0 0 0 0 0 7.2574271301813 0 5.2006682725022 0 0 0 7.190946072216 0 6.3324185105339 0 5.7042200201702 0.88544557704097 0 0 0 0 0 0 0 0 0 0 0 0 0 0 0 0 0 0 0 0 0 0 0 0 0 0 0 0 0 0 0 0 0 0 0 6.4223544256858 6.6438413675697 13.359916288029 1.2091593430757 0 0 0 0 0 0 0 0 0 0 0 0 0 0 0 0 0 6.9565406234967 7.7670125471122 0 0 0 2.8590990326235 0 0 0 8.6530214595846 0 0 0 0 0 0 0 0 0 0 0 0 0 0 0 0 0 0 0 0 0 12.440574479659 2.3812814379434 4.5112403048177 1.8617083752484 0 0 0 0 0 0 0 0 0 0 0 0 0 0 0 0 0 0 0 0 0 0 0 0 0 0 0 0 0 0 0 0 0 0 0 0 0 0 0 0 0 0 0 0 0 0 0 0 0 0 0 0 0 0 0 0 0 0 0 0 0 0 0 0 0 0 0 0 0 0 0 0 0 0 0 6.0263017351662 4.3815945746323 0 4.1888438443089 12.183713464107 2.9800555016899 0.99385572869896 3.9664500707913 17.242684470967 9.8724021491139 5.9573536534152 12.391585282021 9.6811981088294 0 16.755299731179 4.342867953381 3.1697924340226 0 0 0 10.272666353502 15.249647677059 9.4502657733142 2.6821608881143 30.796761253649 9.6846201036906 0 0 0 0 0 0 0 0 0 0 0 0 0 0 0 0 0 0 0 0 0 0 0 0 0 0 0 0 0 0 0 0 0 0 0 0 0 0 0 0 0 0 4.1169330828092 5.9170376275356 0 0 0 0 0 0 10.556578519631 33.296131173845 6.032059732866 10.424350529068 0 0 0 0 18.501304792745 0 0 0 0 0 0 0 0 0 0 0 0 0 0 0 0 0 0 0 0 0 0 0 0 0 0 0 0 0 0 0 0 0 1.7025157747424 8.647255824967 0 0 0 0 6.3445214106 10.564027900258 4.6909876327439 5.2552869160708 7.2448842619402 10.233640511407 12.194513838908 0 0 0 0 0 3.9551759130051 6.0706969717781 9.1984766904656 11.910211911474 11.601415335613 4.4581172933893 30.358382516635 13.732321467102 0 8.6345398937851 21.674130143127 0 0 0 0 0 0 0 0 0 0 0 7.1954499114876 0 0.91248306657304 0 3.2319285236717 13.311965936244 0 14.901453614083 1.7818851271378 0 5.1731716092593 10.565453651715 1.445681783305 31.917035266895 0 0 0 0 0 0 0 0 0 0 0 0 0 0 0 0 0 0 0 0 0 0 0 0 0 0 0 0 18.327446500701 0.96378785553665 12.388574595428 43.698109989454 6.486689456285 1.9885616350719 0 0.92492009347069 1.6477380269993 0 2.7971456809101 1.0562908700176 30.827137715885 1.3548021936977 3.3051654878603 24.843206112202 1.3734463104572 1.3734463104572 6.0105088329257 1.3548021936977 13.804483672341 4.5136199582753 33.965541786063 0 0 0 0 0 0 0 0 0 0 0 43.723974492799 0.95334158734835 2.5352726908816 37.434349501407 2.2568099791376 3.623601359266 5.6453524591923 1.6770115573215 27.966231174023 21.593646946506 1.8462456773214 17.808453257978 1.12289056095 7.3047024041095 2.6869601817512 0 0 5.931443528924 0.95334158734835 0.98869953758197 2.0189005310853 0 24.649227022629 0 0 1.8481089489312 6.9968848894799 0 0 23.967428665751 0 2.8248653542991 2.8248653542991 1.7422521937354 0 1.3066117901741 2.363537546734 0 0 2.266576701999 0 0 23.967428665751 0 0 0 0 0 2.350737662028 0 0 0 0 0 0 0 0 2.3857152067622 0 48.605364375592 0 0 2 0 2.288501397245 0 3.9373982047233 11.373816086583 0 0 29.165454792764 43.945791913376 2.8555319638512 1.8244975477223 2.899007145295 0 0 0 0 0 0 0 0 0 0 0 66.241365488054 2 1.3556454861361 1.2100128540246 0 4 27.748758667373 28.052461002096 50.066206907638 0 26.391333924539 0.73902040085713 0 0 10.919842327412 56.80642999894 0 0 0 0 0 0 0 0 0 27.085842712027 47.509053097161 0 0 0 0 0 0 0 0 0 0 0 0 0 0 0 0 0 0 0 0 0 0 0 0 0 0 0 0 0 0 0 13.055056539962 0 0 0 0 0 0 0 0 0 0 0 0 0 0 0 0 0 0 0 0 0 0 0 0 0 0 0 0 0 0 0 0 0 0 0 0 0 0 0 0 0 0 0 0 0 0 0 0 0 0 0 0 0 0 0 0 0 0 0 0 0 0 0 0 0 0 0 0 0 0 0 0 0 0 0 0 0 0 0 0 0 0 0 0 0 0 0 0 0 0 0 0 0 0 0 0 0 0 0 0 0 0 0 0 0 0 0 0 0 0 0 0 0 0 0 0 0 0 0 0 0 0 0 0 0 0 0 0 0 0 0 0 0 0 0 0 0 0 0 0 0 0 0 0 0 0 0 0 0 0 0 0 0 0 0 0 0 0 0 0 0 0 0 0 0 0 0 0 0 0 0 0 0 0 0 0 0 0 0 0 0 0 0 0 0 0 0 0 0 0 0 0 0 0 0 0 0 0 0 0 0 0 0 0 0 0 0 0 0 0 0 0 0 0 0 0 0.93492999503814 3.1745714516451 1.8758743983066 5.6088384790493 3.1025192966292 4.0912987843561 4.1553771077238 1.8525013829359 3.5229364653976 3.4822804375364 6.5550943990123 5.1741234197247 4.2088350067754 1.1540247147058 6.1172026184703 9.1489583982244 1.6368558733767 4.2586751636245 5.421391887435 6.1388050550264 2.8963633436896 2.6666609781556 6.6182259691348 1.6653545624392 2.0277098784865 3.9550909316105 0 3.7513143102727 2.0631327173044 7.0075690254269 1.241656128085 0 1.9532301640278 9.9121195866359 3.0757561269234 2.2564657261226 9.5935389169806 2.1555938459289 22.008403156715 0 8.8764310986292 1.0766870515166 9.4634268426038 7.8865733516133 0 7.1806687756506 6.0988828130076 1.1475602498495 0 0 19.164793561361 0 1.3278159244668 1.5514366683742 12.525917029495 0.52027902850064 0 0 0 0 0 0 0 0 0 0 0 0 0 0 0 0 0 0 0 0 0 0 0 0 0 0 0 0 0 0 0 0 0 0 0 0 0 0 0 0 0 0 0 0 0 0 0 0 0 0 0 0 0 0 0 0 0 0 0 0 0 0 0 0 0 0 0 0 0 0 0 0 0 0 0 0 0 0 0 0 0 0 0 0 0 0 0 0 0 0 0 0 0 0 0 0 0 0 0 0 0 0 0 0 0 0 0 0 0 0 0 0 0 0 0 0 0 0 0 0 0 