# vtk DataFile Version 3.0
d-2__ created by libgimli-v1.5.3-53-g6241cfab
ASCII
DATASET UNSTRUCTURED_GRID
POINTS 1475 double
108	5.23	0
108.6528124008	2.4949594957588	0
110	5.195	0
113.26771913454	2.3992658123381	0
115.33473655491	3.2590588727479	0
114	5.14	0
131.65302382616	0.53560508845729	0
132.64858679258	3.0730275673631	0
130.81428405169	3.0318419233689	0
118.8836372666	1.4461310673717	0
120.87160152433	2.8135502997223	0
118.99493780298	3.4852956710595	0
112	5.16	0
94	5.595	0
92	5.65	0
93.137339979013	3.4541211211964	0
110.97519518693	3.1662027906982	0
110.93506486681	0.54052293753987	0
244	3.79	0
245.79005601313	0.073961193414539	0
248	3.66	0
136.97093364221	0.17860827216163	0
139.18483223678	2.2788747565731	0
136.97541250389	2.8567660239091	0
96	5.54	0
95.033315060147	3.8124689678509	0
96.93977058459	3.4527776054026	0
178.5669466144	0.88518295407708	0
178.34351538457	-1.2459881062954	0
180.20290750319	-0.58394373119157	0
139.66024477538	-1.1374346294117	0
98.931327389715	3.6913436611771	0
98	5.46	0
108.29936869528	-1.0327871418947	0
104.78308043277	3.4371704592604	0
106.6234437827	3.4490902490487	0
106	5.265	0
184.9899739396	3.557561655022	0
185.01117751938	1.3189945805337	0
187.15415027626	3.0086361296234	0
224.81728517212	2.447029618765	0
224	4.3	0
223.07432120177	2.7673974315793	0
231.07444057547	-0.28045357503402	0
230.98275210641	2.2089043048025	0
228.69111751409	1.4686121130648	0
105.56620425718	0.93248692534099	0
134	4.875	0
132	4.9	0
130	4.93	0
222.63086126167	-1.2975050282591	0
221.07904293863	1.7208477820067	0
220.00037371051	-0.99698531444714	0
176.67894255277	2.5900351579849	0
176	5.13	0
174.69977905748	3.3522839449989	0
80.76083226214	-2.7402581672354	0
78.61916235693	0.67228350240369	0
76.072736604854	-2.5885943723053	0
144	4.74	0
142	4.765	0
142.81646652201	2.8731226140453	0
138	4.82	0
136	4.85	0
230	4.145	0
228	4.2	0
144.94804999317	2.4167447865631	0
146	4.72	0
140	4.79	0
225.69348490305	0.010411202365838	0
226.64480688527	2.4452983105627	0
120	5.09	0
118	5.105	0
180.67875020299	1.731565611348	0
182.84800308028	2.9829400353422	0
180.91689665057	3.6783437070503	0
116	5.12	0
117.2314369355	3.1444833383898	0
159.34514887995	0.66874655825144	0
160.91596472184	2.6846820032603	0
158.97129624233	2.9047905553399	0
122	5.06	0
211.37548403845	0.00029877265388814	0
212.88542492891	2.2128610620036	0
210.72382450712	2.5337731941995	0
134.66869872666	2.11225881333	0
123.06389304582	3.1251084893403	0
124	5.03	0
103.05338886195	3.7978552580975	0
104	5.3	0
102	5.34	0
124.86157405668	3.328488355921	0
233.13996545392	1.6746639961695	0
218	4.445	0
218.95525727331	2.7785425348828	0
220	4.4	0
190.77050383835	3.4266192054728	0
192	5.2	0
190	5.245	0
36	7.6	0
32	7.74	0
33.652461778866	3.4273034964573	0
16	7.58	0
17.4046830103	3.8823869347162	0
20	7.595	0
103.28422982075	2.0726907529981	0
124.25292409934	1.3598331601933	0
126.95404717347	2.1946455854811	0
101.11860409948	2.9482417176983	0
101.79847505691	-0.60672768385718	0
30.025628271005	4.5166337569424	0
141.469991846	1.1254787487423	0
143.31459332503	0.99940013513972	0
28	7.675	0
24	7.61	0
26.553546791779	3.7253118354455	0
89.025765194407	4.031588326506	0
90	5.7	0
88	5.75	0
38.676355701399	2.8053025202623	0
40	7.46	0
12	7.925	0
13.87175933635	4.5724866691609	0
21.908355810213	2.7690481715939	0
1.1010624031874	5.1432311486365	0
2.2732606627679	2.7122955617685	0
4.8701826683419	4.5792653216033	0
207.05257659472	2.4475188441111	0
208	4.73	0
206	4.78	0
24.343386608118	-8.7670681125523	0
18.962201979763	-7.7172626644085	0
20.51954810543	-11.373712165386	0
83.166738088794	3.9489501364665	0
82.771360714775	2.100468826261	0
84.525461120561	2.4379443292188	0
236.7120167938	1.9782511175567	0
235.22175336177	0.53067355535047	0
236.96091242825	0.014204151403855	0
146.92290092612	2.9959450152531	0
146.89942644722	0.54908992953337	0
148.77195084502	2.6138091492016	0
155.02778306008	-0.96364550676653	0
157.4530487125	-0.91016775213784	0
156.64205304059	1.8674121160615	0
0	8.97	0
4	8.62	0
86.893574213072	3.1902582185239	0
222	4.35	0
191.17985277333	1.7594216163062	0
190.42194202738	-0.065044203875825	0
192.36037085181	0.74136111757578	0
8	8.27	0
82	5.96	0
80.866627666281	3.232494507441	0
74.454748761354	2.110565785757	0
77.990103351321	3.628426888194	0
76	6.115	0
80	6.03	0
153.93714260249	1.184259164495	0
154.69231782737	3.0355127474671	0
152.91980278153	2.8905451592406	0
233.54784559312	-1.1423010344763	0
84	5.89	0
84.911531382796	4.2407794463507	0
100	5.38	0
217.16555795677	2.5160865347429	0
216.45848844812	0.3322230939736	0
218.57238033339	0.82880744595548	0
70.682691764717	-1.8494552596797	0
73.263590962369	-6.48933930831	0
164.96269937926	2.2897723524042	0
162.40765440317	0.2913655139015	0
165.25303696478	-0.54763319841676	0
42.249074106289	4.5004078598823	0
128	4.96	0
126	4.995	0
48	7.18	0
44	7.32	0
45.505263156891	3.9414030372485	0
242.0912382045	0.87349871101737	0
66.327265870192	3.4874002361423	0
68	6.345	0
64	6.49	0
129.04471974912	3.3227510440983	0
67.915871702421	-6.75393275235	0
81.627057851463	0.42381652749325	0
174	5.075	0
172.83943500951	3.1836161693521	0
56	6.83	0
58.098036270142	3.0540808177192	0
60	6.66	0
86	5.82	0
156	4.64	0
226	4.25	0
200.81564573405	3.0399771044316	0
203.04410530289	2.4992036328204	0
202	4.89	0
125.51515059948	-0.52596471731659	0
128.35968186741	-1.1654406191419	0
232	4.09	0
235.02807224491	2.4336048016957	0
236	3.99	0
192.88199650483	2.8565976564941	0
234	4.04	0
122.34463523381	1.3166214941805	0
214	4.525	0
212	4.56	0
205.03929185819	3.0800672102983	0
210	4.645	0
215.0928236517	2.2548405411408	0
188	5.29	0
186	5.285	0
160	4.71	0
216	4.49	0
179.12187071133	3.2137409110545	0
154	4.65	0
152	4.66	0
150.92572541691	2.6878526133671	0
204	4.83	0
272	2.57	0
273.73455787979	-2.2418344808088	0
276	2.355	0
278.66138755598	-2.1027641719039	0
238	3.955	0
238.93179805961	1.0308164998135	0
164	4.79	0
162	4.75	0
162.84984431894	2.950852626128	0
209.08449899793	0.89907472046843	0
208.97327650747	3.037055895076	0
280	2.14	0
276.06571116082	-8.5369505740217	0
279.46884710361	-6.6436881500397	0
276.30374208665	-5.1870709801556	0
116.18397168003	0.60118703682845	0
240	3.92	0
141.1004575231	3.1718389939963	0
238.04466728521	-1.7480042361062	0
129.38268580225	1.5640701335937	0
172	5.02	0
171.06075046512	3.4449152038465	0
240.59535957118	-1.7379889002911	0
239.19957590147	-3.9239516817387	0
243.18643272648	-1.8327240487662	0
242.04181727609	-4.7955995293801	0
245.40053480408	-3.5728709342829	0
214.09900944202	-0.45696927228359	0
253.4102372528	-0.34586680914597	0
252	3.495	0
249.71251643453	0.15211940242977	0
262.3499364867	-0.9643295610359	0
260	3.145	0
257.64562123821	-1.6074807975117	0
122.71828015158	-1.1028724314301	0
120.80691073962	0.52929647609275	0
119.21499149855	-1.697779355146	0
148	4.7	0
150	4.68	0
158	4.675	0
168	4.91	0
167.07262851547	3.0844434522397	0
169.15409175955	2.6559883365028	0
166	4.85	0
95.096512030611	1.1406198178606	0
91.765769293293	1.0823515976605	0
178	5.18	0
170	4.965	0
194.68403819142	0.75048184414592	0
197.10666873431	2.6329838186497	0
194.94982285344	3.2798613434221	0
194	5.14	0
196	5.08	0
189.0688997517	3.7659995689393	0
200	4.95	0
180	5.23	0
182	5.255	0
198	5.015	0
184	5.28	0
98.581487494238	1.3436381978934	0
223.45917535083	1.1126505351565	0
199.06960659733	3.4086171535013	0
228.43295312822	-2.2128039543382	0
173.92739399092	0.88077907163839	0
176.44775941812	-0.44384192932212	0
171.28575921999	1.4818404647718	0
187.68957414872	0.19330269043492	0
189.3844718085	1.9786678825596	0
182.57792256866	0.21061176614246	0
199.38198376187	1.4179527462249	0
201.33500174536	1.0928727112233	0
134.22106238836	-1.5525498541635	0
110.85177461091	-2.828563198892	0
113.41251637707	-1.0840944849024	0
90.879944362375	3.6263764451576	0
125.2107297867	-3.7389782349322	0
136.9646276055	-3.5814508182205	0
144.64087393903	0.075591613768995	0
142.69023237411	-1.5154862480376	0
171.33375563594	-1.2744921371446	0
169.39368673551	0.16613965806001	0
167.92795656775	-2.7659475807006	0
152.46573138084	-0.83453194170472	0
149.92414275553	0.1247053330483	0
150.70387729068	-2.9982699787533	0
89.283235296806	1.9769453590022	0
89.434177875903	-0.67819656430019	0
217.85001986179	-1.3616264014854	0
216.02369081026	-1.7360330177012	0
217.11543113125	-3.5635205486674	0
231.61726154625	-3.5132509515998	0
235.83686433718	-1.6884979629752	0
203.0020841513	-0.27722282299385	0
200.41751511386	-1.2450428921124	0
152.00414808494	1.1981766735327	0
167.27524685016	0.7857516663793	0
205.12036674578	0.8868412997887	0
179.57138384279	-2.9279454124108	0
177.05278382619	-3.2338165542936	0
174.17311698194	-2.5271921070925	0
205.41835946836	-2.308821595675	0
203.48987277763	-5.4209932866656	0
207.27810541211	-6.3015458986607	0
178.95365212105	-5.9098215260756	0
181.93326197406	-2.2934062554574	0
181.2237442078	-4.4492559141741	0
197.47145878957	-0.43670714440153	0
209.20784142704	-2.3943421722645	0
211.91803474857	-6.2096438034233	0
212.24369523873	-2.5477947529337	0
105.23639329206	-3.0699558704086	0
85.727647744552	0.77429351189766	0
86.783824670075	-1.1913043457091	0
87.627888620154	0.80202826828749	0
83.73091179456	0.54510951571353	0
83.106756783902	-1.2072243742527	0
207.17598215514	-0.098534628818433	0
214.63644914166	-3.5680885598603	0
216.46962865996	-6.6892385615655	0
218.67701193286	-4.9549792942813	0
222.21032994948	-4.3410257621958	0
225.19729979219	-3.6454502877732	0
219.10915788164	-3.0251375902701	0
174.96096932631	-6.3370862787556	0
174.97821877346	-10.530710771617	0
172.06642729689	-13.533175415532	0
175.99122495409	-14.382341125871	0
185.06688028124	-1.9005090213439	0
121.61834130774	-4.4765644806719	0
88.392743755259	-3.7021998862911	0
90.574246923613	-7.4300368948305	0
92.645144633397	-2.6734323309781	0
84.801528932715	-0.89570017513831	0
97.48193658491	-2.2445478814712	0
153.58787410627	-3.5086798930505	0
131.2209650079	-3.1358015131992	0
145.36110666969	-2.0873732527981	0
140.64403515852	-5.4336757492447	0
72	6.2	0
69.773552604598	2.765221565768	0
[...]
CELL_DATA 2718
SCALARS Coverage double 1
LOOKUP_TABLE default
-0.10833474335734 -0.60046603784418 -0.68938087163444 -0.71422770581859 -0.021174421476011 -0.25562277239774 -0.61894570315194 -0.78221658155113 -0.015206231559534 -0.95306375712658 -0.71205632098659 -0.76558406289615 -0.48992382122605 -0.047830468652298 -0.8270079874675 -0.83145759940013 -0.63630281281236 -0.89895609414704 -0.49793393267306 -0.73803753917697 -0.49140617520052 -0.07041850081736 -0.46173802966093 -0.86236809209881 -0.76012016070788 -0.10217016602115 -0.099855492119486 -0.89215189150014 -0.41614302137918 -1.1880143035406 0.043001658154443 -0.0097582739452234 -0.20192225300852 0.043577571549286 -0.048509390223322 -0.76201515052303 -0.39616959385297 0.026050962563053 -0.70664023895032 -0.03289760725087 -0.67442165679365 0.0012540849855501 -0.66982186218336 -0.70665478712878 -0.48932281107097 -0.033967765125815 0.077064848341435 -0.39389803675307 -0.5790376516984 -0.84801127055415 -0.13304502753999 -0.51938425178567 0.047583962518006 -0.7875394897674 -1.1099099110349 -0.67584079812672 -0.69006530169736 -0.901569347727 -1.177117264443 -0.7297477520501 -0.90422525229721 -0.28781357443061 -0.68733062076878 -1.0981426391274 -0.95019168862093 -1.8642403927892 0.0045863923379036 -2.0579855994687 -0.93810613291103 -1.0050865198552 -0.64628670992388 -1.3465980109236 -0.75707073249528 -1.6031844915974 -0.72356755641496 -1.3606135290231 -0.67063977252759 -0.013130835378077 -0.83297089582243 -1.2366583975883 -0.85100785287176 -0.94944817638021 -0.58958026655717 -0.60456521789328 -0.99868586740566 -0.82636635632333 -0.45338204861955 -0.59328350190567 -0.071576852056353 -0.70262812464041 -0.68018286634678 -0.79227742068754 -0.74600706361849 -1.4666804101204 -0.68645649162063 -1.0378051857854 0.02519577494474 -0.58052417726868 -1.0643247400549 -0.65867045190378 -0.58080375036874 -1.5260573713895 -0.66451672726687 -0.95869075702598 -0.87893355294483 -0.72788292135824 -0.63283131158032 -0.57697803150747 -0.29542526426457 -0.74119131206752 -0.50072613913474 -0.78318957510126 -0.1584964504106 -0.76705225879905 -0.63974087979259 -0.88156695132012 -0.73531059717971 -0.78877348005281 -0.62830696167289 -0.16568332730938 -0.46119548005961 -0.14430343295514 -0.026877690567118 -0.72091461392661 -0.18071798228984 -0.088670768873715 -0.62715935582454 -0.085681828530369 -0.7374819986846 -0.71079087869944 -0.13082335338353 -0.66617761069937 -0.50687795658895 -0.07479282275929 -0.72173591233365 -0.69857402560875 -0.57408044704946 -0.57998251977176 -0.42582607999296 -0.11318188794102 -0.1488801389382 -1.3448570214836 -1.8404863438845 -1.0161250040116 -0.59787199309195 -0.11372936744428 -0.647384529847 -1.5279096414966 -2.1373400641563 -0.66457171917375 -0.45584684739204 -0.70628379144323 -0.67050562488809 -1.1518447383487 -0.67538432754709 -0.70763961031303 -0.51757304169332 -1.3002750225356 -0.056448898759068 -1.4292750141716 -0.85132703276273 -1.1241090217109 -1.3373767849917 -0.43622704347474 -0.96610264991241 -0.44190933646445 0.068703502637586 -0.98819650188002 -0.077680219919909 -0.07116258370225 -0.098825709318356 -0.51143389220067 -0.054219587161189 -0.081508382782137 -0.57991875902835 0.062089308335069 -0.54307849181271 -0.095596117532977 -0.056774278831658 -0.1360576482537 -0.90123694507996 -0.67295140358709 -0.07057626404725 -0.96124813813676 -0.13183565451209 -0.15230662240819 -0.51100696401083 -0.066905725116139 -0.0014363900058981 -0.58946104088995 -0.071543608087638 -0.67506071250794 0.01031807336907 -0.08926023731299 -0.58165204217717 0.017408425446923 -0.0073992220671001 -0.11109755080135 -0.50536256870287 -0.03320619818479 -0.056646686429347 -0.49190806197067 -0.12508058386604 -0.51038988348097 -0.1093331538969 -0.49757894185449 -0.079253036989346 -0.50100099261608 -0.81311875948435 -0.77836111571706 -0.077810516622396 -0.60333405080899 -0.57443420973387 0.07600577233447 -0.64898310143326 -0.11423837530919 -0.71302275811023 -0.0090171817453713 -0.51461719462191 -0.16521639723209 -0.80759672813223 -0.92860121185835 -0.90461370536558 -0.59397291642617 -0.74279618182871 -0.53501556285678 0.043976429523425 -0.65123060028111 -0.62086258556915 -0.63105580416475 -0.61947191768216 -0.47697102108274 -0.6559367207853 -0.81611484282684 -0.13109916964191 -0.61799472475989 -0.82112528751535 -0.6776406846311 -0.73677838743086 -0.68516355058708 -0.72896379846766 -0.75554988883009 -0.64059103655834 -0.65942408926549 -0.72361879393847 -0.80809149300116 -0.77875224450756 -0.83556166992693 -0.025198523048454 -0.6872179147483 -0.5884802483581 -0.71294969186196 -0.53493928228312 -0.76747081744184 -0.44390663827741 -0.75566860518406 -0.6423523370632 -0.82797793198257 -0.62119759363264 -0.60423491335851 -0.54132979220692 -0.80250227443928 -0.75177878094116 -1.0031331007639 -0.79266974251582 -0.94583842097953 -0.2335771128277 -0.79816125819633 -0.32474061844556 -0.77929245438315 -0.94905052591658 -0.87539364822507 -0.82190717966378 -0.82941241696252 -0.64153603955168 -0.69056974261885 -0.42083310461859 -0.75896812271704 -0.857363807068 -0.75336101734747 -0.81750583270722 -0.63483254237608 -0.99594352387163 -0.94907513125739 -0.84270056416042 -0.88187974683189 -0.6772620193255 -0.81068782730607 -0.96410697206044 -1.0679720338527 -0.79742338870023 -0.9653746727122 -1.0751433635162 -1.3716371381985 -0.44546049909853 -0.78964032299793 -0.84523274334125 -0.89129069749269 -0.78445268791847 -0.89286976178456 -0.59827929779393 -0.7089509582187 -0.60543242954642 -0.65331828308989 -0.70759890253361 -0.77513080848906 -0.62328241407832 -0.72087727997551 -0.660126731339 -0.77938703054946 -0.80474262552986 -0.68492850359213 -0.75364075742244 -0.90153966607045 -0.75182867600769 -0.77156636733776 -0.725285713991 -0.89533109452443 -0.81130457249805 -0.94778235924563 -1.0733598715789 -0.85515843932238 -1.1345423097472 -0.85173768257517 -0.92019339865139 -1.1572386887027 -0.50431147639317 -0.67808903664115 -0.62336623355983 -0.78635271695287 -0.85016479835493 -1.031158054062 -0.755290135814 -0.7747594871766 -0.89449480941131 -1.0279048460122 -0.70038846190962 -0.8935695153156 -0.7168532965641 -0.88469489813823 -0.81338745632837 -0.96162061514393 -1.0520142720716 -1.0596436057876 -0.72927068793644 -0.80593412466875 -0.63253262977821 -0.7125718866072 -0.74863000746059 -0.72446951954309 -0.64288942895173 -0.78653935741518 -0.97201285895716 -1.0285379430213 -0.71907605401985 -0.79782560277378 -0.9134997495141 -1.0730349341321 -0.69628139627545 -0.78702041523218 -0.7658048275221 -0.86646404187332 -0.80886288607577 -0.91326331835453 -0.85958272667405 -0.99739340005626 -1.1684390499044 -0.93943291413228 -0.94780473265042 -1.0230123721214 -0.99229797880232 -0.81969797531322 -1.1302732023282 -0.68704261448252 -0.66732695636291 -0.72705783183282 -0.6829150439299 -0.79267090263981 -0.89974197883217 -1.9368964557352 -0.84513898897933 -0.88199672549266 -1.0834249997056 -0.7714260712684 -0.66234403536025 -0.80869850732428 -0.93090671270618 -0.78955889250162 -0.80132216030358 -0.84505364147658 -0.89524243274109 -0.90471109257789 -1.0113961623268 -0.84661377887466 -0.97833572687743 -0.82910121544846 -0.86760971996773 -1.2413995741434 -1.08012329983 -1.1018932729617 -0.94930998661225 -0.95532464412876 -0.66023988489938 -0.75395133731829 -0.77062131450804 -0.81217908753543 -0.90235072674158 -0.85063038136405 -0.83168854443186 -0.68429094599507 -0.88151183565645 -0.76996779798475 -0.7887592822371 -0.78096853852357 -1.0626372880285 -0.94189536443051 -1.0332810509596 -1.0161155848818 -0.97589464709645 -1.1467184506996 -1.1191433902625 -1.1359757961711 -1.3228628895514 -0.98207910685137 -1.0807109991818 -1.0412881777358 -0.94273715473191 -0.93728476383594 -1.1587563050077 -1.0958371281975 -1.163397725444 -0.90453837915388 -1.1504970806148 -1.313030210243 -2.0883708708402 -1.2561696682241 -1.5563801133006 -0.85862011385593 -1.5171619048559 -1.1412810425318 -0.90749276291431 -0.96901504372201 -1.0908446466569 -1.0731927670246 -0.71836155758131 -0.84574558882341 -0.8278017208689 -1.0637644858245 -0.83675457754417 -0.69408465463836 -0.85957611614492 -0.86271787438752 -0.80651209571487 -0.81248738161384 -1.2865278411674 -1.08380615153 -1.0386571933629 -0.9005806833538 -0.77404793672344 -0.83617818684147 -0.86241425548858 -0.83224881601412 -0.87785008785003 -0.66807491811829 -0.89423546209096 -0.9436335125162 -0.90125154622473 -0.76261422748221 -0.93699086431719 -0.88575790052912 -0.7373211082851 -0.82023345805484 -0.88356081365982 -1.0694182611438 -1.3918597925842 -1.0085959407694 -1.1811300473122 -1.1223774693301 -1.1679665461313 -1.1400757010805 -1.5044987314622 -1.3118788045363 -1.2043896394905 -0.92440793731484 -1.0982954227124 -1.0477682072223 -1.2655329038102 -0.99949458462691 -1.2142747889024 -0.96124449684618 -1.4992844227843 -1.835031811634 -1.2885508761453 -1.2633705603085 -1.1031435698567 -1.178902748514 -0.74681749032694 -1.0942407168257 -1.3005619718152 -1.079261419819 -1.1209887414907 -1.3585602561042 -1.3182641412299 -2.0002502935871 -1.25464180342 -1.2446449863667 -1.2806193213403 -1.0347442177995 -1.0345089159198 -1.5526283602909 -2.226164639466 -1.0144981423037 -1.0928435170672 -1.0179054984962 -1.0794957311429 -1.0355837029585 -0.85643375148651 -0.90814359332908 -0.9264534883788 -0.83356046588897 -0.86396113308031 -1.0177963645254 -1.1481724819332 -0.81552716692334 -1.1401849039354 -1.0991247812134 -0.98658108307549 -0.90796228926564 -1.0085905473169 -0.74574472491 -0.78769560873775 -1.1991791846949 -0.99438159079401 -0.80619183271239 -1.0787634605879 -0.98100653397272 -0.90474168828187 -1.0585327289155 -1.1813683653072 -1.1823818704573 -1.3843635512372 -1.2654920104101 -1.3528316845961 -0.78724575065249 -0.75792148432846 -0.84361301646801 -0.84458828318029 -1.0116916319323 -0.88979425400457 -0.95980830853169 -1.84357351847 -0.9975602873579 -1.5356428956587 -0.85244362061887 -0.80783427536247 -1.3460954778228 -1.1857221901087 -1.3286111296574 -0.77752457471858 -1.3034208364183 -1.4519491167404 -1.3694299279046 -1.6262879477823 -1.1216094493734 -0.92054561317386 -0.96418928494622 -1.4877510593297 -1.023973738172 -0.8233861935575 -1.0656170055187 -0.96529618015515 -1.1027686190087 -0.93908865178194 -1.1611280320289 -0.99930434039653 -1.279083900815 -1.0921973211576 -1.1174872909394 -1.3608792934723 -0.70714175184402 -1.0771669887003 -1.0875765878715 -1.353386286416 -1.0174700028253 -1.4187460271049 -1.0034804811191 -0.91917236960316 -1.2242690721562 -1.1819196683649 -1.5408969461609 -1.2213842092296 -1.0389725231131 -1.1191979821075 -0.96891455446971 -0.92888262750071 -1.0934858719273 -1.0625487985986 -1.0828855774592 -1.1286573026769 -0.96829594932401 -1.0386725957245 -1.5559957279762 -1.1890531342311 -1.1668163731388 -1.0398947195764 -1.4866750963627 -1.5390628332708 -1.3911261064235 -1.1930696905378 -0.78309387429084 -1.0982615207938 -1.4139197158018 -1.1888553749238 -1.5511177888159 -1.2827819865905 -1.8471624556799 -1.5345799385958 -1.575065941185 -2.0453902366961 -1.1030155765014 -1.0655534452497 -1.1361065579674 -1.0434303027576 -2.2392272160208 -1.2516287512563 -1.1093874174553 -1.1631736861415 -1.8715950176393 -1.0189352099194 -1.685496582621 -1.5000186777659 -1.4612996709021 -2.1047606317357 -1.054030081656 -1.3726146973532 -1.6405788367559 -1.3808409127049 -1.3060432793692 -1.036791018785 -1.1901567656079 -1.0540730634051 -1.4734828926871 -1.1775492111832 -1.3098317533934 -1.4976748665632 -1.1894574343013 -1.2252843622846 -0.97943866027931 -1.1376915953517 -1.872639824706 -1.6039397109731 -1.8180293820879 -2.0948609323952 -1.8780589879983 -1.5265828203325 -0.97836827720807 -1.600008467676 -1.0879128789773 -1.0536431881854 -1.4222227722212 -1.4335734751799 -1.2761703437046 -1.1954455012581 -1.4780195422551 -1.3505654438696 -1.3815376093958 -1.462045310948 -1.4351771202547 -1.0313300836065 -1.1184136605332 -1.1218699646802 -1.7021953296257 -2.8144558136722 -1.870169024002 -1.6689314470598 -1.6433923349629 -2.1188769077291 -1.0571606050364 -1.3411860136569 -1.1210923157116 -1.1951690649641 -1.2551472539864 -1.4428246976518 -1.1080802167423 -1.2698624402395 -1.2040073895254 -1.3374967149105 -1.2749091032561 -1.4380571575065 -1.5007754954221 -1.0797921088299 -1.2080683715107 -1.1668556728844 -1.1866854106182 -0.955562191628 -1.9169469088218 -1.4498077702319 -2.0336797834051 -2.0278549759393 -1.6708043904815 -2.399638748211 -1.4902321527535 -2.6114444772778 -1.612883461718 -2.1423428431419 -1.2995847627066 -2.034356974628 -1.6611437335621 -1.1702624989242 -1.3982293974882 -0.76464243574323 -0.55079914920956 -1.9550200611789 -1.5579919468817 -1.1622154263133 -1.1219974214938 -2.1494967557643 -2.2692806706904 -0.83546278126922 -1.1698735945009 -1.6444932816276 -0.78616193981517 -1.8105823859862 -2.3667961702615 -1.401505185749 -1.2083834937251 -1.5843650455734 -1.5561731505989 -1.7391206053647 -1.9364451942339 -2.0246700779367 -1.8998908167267 -1.8874780810335 -2.0411127344033 -2.3864877949128 -1.6631730425147 -1.1801300633521 -1.2644831613018 -1.4363299078856 -1.148278396835 -1.5574655168642 -1.3301395844659 -1.8010795261035 -1.6784699877846 -1.8144248003679 -1.7085707605598 -1.8329816216249 -1.0315112763594 -1.630830210098 -1.2872561941173 -1.197004032519 -0.60799915577735 -1.272590578046 -1.5964177219198 -1.4579573821301 -0.89095016106384 -1.2013124418764 -1.0844529175463 -1.3111314981025 -2.0418268561208 -2.358995358588 -1.7083878756064 -1.4294781306107 -1.0976169552229 -2.3062038953615 -1.9330216499526 -1.9693416182809 -1.7322848296861 -2.1309422656222 -2.1828003470536 -2.0647662681884 -2.1792888170001 -2.4273793472335 -2.0151363906834 -1.7254944471484 -1.5944113174327 -1.8165790351608 -0.75642016492479 -1.4859808732104 -1.3257560485305 -1.0816604675655 -1.6659885192422 -1.7795440904124 -1.8785656964865 -1.9226997173473 -1.8767034863827 -1.9674239533868 -0.89241406616725 -1.1725728740594 -1.1297808292243 -1.4160249258719 -1.7581529885476 -1.8127275298268 -1.0389387575914 -1.8098297011042 -1.1474465608404 -1.1874523115312 -1.3425821135819 -1.7493519696277 -2.0956715640831 -2.174336211206 -1.891104304064 -2.3068283954102 -1.8515311773738 -1.8442017058224 -1.8946503292687 -2.2629359899503 -2.1774853436404 -2.0113051691254 -1.3210802545323 -1.6143152831315 -1.7234943172904 -1.5462588289918 -1.7320336300706 -1.6783565495583 -2.0194733819028 -1.7680520640804 -1.6280717862503 -1.8337609563102 -1.6925837051356 -1.9773492841998 -1.9317191623092 -2.0239319091503 -2.1126594329405 -2.4105356565513 -2.1332538593744 -2.4115134796673 -1.6205514472182 -1.2109770872397 -1.5071113978589 -1.5304086627157 -1.504900962722 -1.597556562321 -2.0649247902429 -2.6417039552549 -2.2930979717926 -2.1484783139905 -1.6655519980105 -1.7422942819537 -1.4746682232676 -1.785381712905 -2.2151250869221 -2.5261416310843 -2.1567893285478 -2.5011988894312 -2.9209162118128 -2.0465103870788 -2.6618892715129 -2.0509205192711 -1.8465950580352 -1.9296559158126 -1.4058399002948 -2.2326862308309 -2.6397699112821 -2.3019913535215 -2.3875920884881 -2.6098087187432 -2.33569061217 -2.1782844723823 -1.8213104599409 -2.174007660577 -1.8627069109952 -1.6631456879488 -2.3189091319037 -2.1095318951561 -2.1162456978119 -2.354537753392 -1.3610606159752 -1.4557992580833 -1.2498674819346 -1.7802042357914 -1.8419590010667 -2.0368325184135 -1.5423683483927 -2.0432835138175 -1.391186161876 -1.7423222755114 -1.658352392542 -1.6749285134986 -2.0244282268411 -2.2862959653514 -1.1660292136733 -2.381305136127 -1.9755121031001 -1.5815257515444 -1.5881311379356 -2.265142560657 -2.3788753245891 -1.9376823172838 -2.8904482677761 -2.261447159818 -2.2565783388695 -1.5142600153739 -2.0619494616929 -1.9345121422536 -1.5611517840652 -2.1091448086184 -1.9398822633352 -2.0013299636309 -2.0041382519403 -2.1773782228996 -2.1709128339921 -2.1396230556904 -2.1245499492734 -2.4696555983699 -2.3356704509904 -2.2392866339801 -3.2782362563641 -1.4521328369533 -1.3134097201671 -1.2963408685028 -1.4018712790718 -1.4576571850723 -1.7568864739953 -1.6494271743264 -1.719308722894 -2.2098021478556 -1.9824788862235 -1.6468375826431 -1.7355573550507 -1.6166775706169 -1.8501870134409 -2.2627992095305 -1.8147629231016 -2.1525755188353 -2.0574004066051 -2.0210150756303 -2.1606265447222 -1.8126020375234 -2.187136993446 -1.8672248650927 -2.2459444058561 -2.4732766691936 -2.4521881733793 -2.1160626982135 -1.8815362019976 -2.1098567989328 -2.1298561779553 -2.1365326949854 -2.0508262388908 -1.9461119945611 -2.1036204001069 -2.1889401739518 -2.489221897143 -2.46153487097 -2.2743065632087 -2.2697309775311 -1.9124353480572 -2.2384619130929 -1.5235110407278 -2.4029339781851 -2.270556681838 -2.443306056741 -2.4214956191792 -2.2831303297863 -2.2246690968976 -1.9478349100672 -1.998625021083 -2.0896863953123 -1.9824273726147 -2.0080139918375 -1.8814303007694 -2.175506914988 -1.42767942814 -2.5502958249639 -2.5619255053075 -2.0283697602002 -2.7502092161583 -2.737328721328 -2.3641959752288 -2.6333587351558 -2.2792727079397 -2.601327789399 -2.0207279149858 -2.0634411929603 -1.8319081615024 -2.7678536857223 -1.9360478378518 -2.3610911847579 -2.2426086425407 -2.1098811953635 -1.8172254370824 -2.4976853666573 -2.5539003340516 -2.3553246660437 -2.3729178638464 -2.4311077373626 -2.4384027798078 -2.409025705585 -2.2282315690596 -2.5604149731176 -2.2982522449358 -2.3680214861277 -2.1995228450597 -2.3836009399161 -2.1899523474325 -2.2178791931588 -2.2452389264466 -2.5090120957615 -2.1735520977333 -2.0804405835063 -2.0480066662574 -1.8575142191815 -1.8513010062114 -1.6884001957234 -2.0718592978466 -1.6809120461679 -2.0090847013657 -2.7139608664396 -2.661723883246 -2.7386552724093 -2.438794562591 -1.5374133445335 -1.5055342499171 -1.6180890169313 -1.7511827348541 -2.2368269292026 -2.5956499957931 -1.7293023430254 -2.1750568894459 -2.2116547739042 -1.9118594566898 -1.8178139478223 -1.9741138154124 -1.3457981340373 -1.8693231720023 -2.6190356687459 -1.3440528369227 -2.1627543133314 -2.5103445684707 -1.7159126181487 -2.096653021715 -2.5459347911485 -1.8555799038802 -2.3203700904925 -2.7545506029801 -2.6852904458214 -1.894174190605 -1.7207559239027 -1.7868292138729 -1.9429397901429 -2.17735620356 -2.3364839605859 -2.0479114919545 -2.100115017791 -2.1776488891723 -2.1799603493676 -2.3273077452195 -2.2411233264719 -2.5599346362926 -2.0664888688303 -2.3398276695007 -2.25309211168 -1.6989235743946 -2.3913123071997 -2.353685518671 -1.9504081189568 -1.7265891506877 -1.705734943296 -1.580907623213 -1.89559000056 -1.3013007824578 -1.8530281133775 -1.6252137491092 -1.3704335728358 -1.4772335752226 -2.0732603640135 -1.6664878236152 -2.1258108916278 -1.7943907988439 -2.1789998333247 -1.7653497762744 -1.978982068816 -1.8802758859326 -2.7830527850459 -2.844323196239 -2.4066932610942 -2.8242346130659 -1.4298705443704 -1.678989779939 -2.6923859434628 -2.6689475226952 -2.5158334398167 -2.5102192570329 -2.4306141748964 -2.3582118840476 -1.6535914522639 -1.8089921449267 -1.8176417927261 -1.9471912485531 -1.9003334414079 -2.3714519151722 -2.4206543681162 -2.200270671984 -2.3385334475749 -2.4432628355851 -2.5145573672878 -2.6133063140817 -2.6215695139186 -2.7189571858058 -2.752914320885 -2.1681930312283 -2.0047898055362 -2.7278435996088 -2.3886706763914 -1.7404397588525 -2.5339914113013 -2.5393489517434 -2.8628094826691 -2.7116068116375 -2.4957925969716 -2.780235202859 -2.7033215417281 -2.8575044443535 -3.1120689383295 -2.6989681624551 -2.5549644550753 -2.7630352669003 -2.5593380963596 -2.4513921694735 -2.4084116897797 -2.3211455467169 -2.43514618618 -2.8391290992478 -3.0049958473115 -2.6031694229055 -2.7394151514211 -2.159460726709 -2.2078039876981 -2.4639461478073 -2.5721670990416 -2.4302513386698 -2.5435281038548 -2.492244307269 -2.4448210393881 -2.799882211163 -2.6248330904279 -2.0299395541049 -2.0686421268593 -2.5079132382782 -2.379425468889 -3.0325284902767 -2.8104698610663 -3.0319090908714 -2.9337556778092 -2.9475747438202 -2.8941120363814 -2.7978586833325 -3.0184572628579 -3.4117957952663 -2.934577011746 -2.7539880426901 -2.5853357952