# vtk DataFile Version 3.0
d-2__ created by libgimli-v1.5.3-53-g6241cfab
ASCII
DATASET UNSTRUCTURED_GRID
POINTS 627 double
0.59602454149345	-0.55890814287534	0
1.0608819016156	-0.69231184474203	0
1	-0.2	0
1.5538138530412	-1.2593818125152	0
2.3808444399323	-0.96226589507863	0
2	-0.4	0
27.875196975806	-0.26041814910996	0
27.814419337407	-0.64642690483977	0
28.199150933087	-0.36912165509724	0
0.16971469503797	-0.39121754785772	0
0.5	-0.1	0
48	1.2	0
47.5	1.15	0
47.777114870539	0.78133833982489	0
2.5	-0.4	0
3.0273213995452	-0.76942737902147	0
3	-0.4	0
7.5	-0.4	0
7.6364402180375	-0.59411264956681	0
7.75	-0.4	0
3.3812157411133	-0.59539976181549	0
3.5	-0.4	0
3.25	-0.4	0
7.5708308146565	-0.85951222953059	0
7.9377651355219	-0.7015993336413	0
3.6122391877338	-0.58072427502293	0
33.202892396591	-0.59535092747804	0
33	0	0
32.560315583292	-0.49737044175057	0
0	0	0
-0.16928288127992	-0.27137808660493	0
3.9147318475892	-0.67983308489439	0
4	-0.4	0
3.75	-0.4	0
27.187838060729	-0.45733056754242	0
27.122891658963	-0.71526180345574	0
27.415206839024	-0.55276830742071	0
4.5	-0.4	0
4.2374041084785	-1.0529915782402	0
23.10665474191	-0.26473662514052	0
23.25	0	0
23	0	0
38.8405829624	0.084451656408117	0
39	0.5	0
38.5	0.45	0
5.2591984577563	-1.1578544721481	0
5.5	-0.4	0
5	-0.4	0
6.5805018764446	-0.81713513745441	0
7	-0.4	0
6.5	-0.4	0
6	-0.4	0
5.9504684721398	-1.0072912199447	0
42.894303234233	0.43683044180711	0
43	0.8	0
42.5	0.75	0
3.780471667081	-1.1085553727577	0
3.5115586187897	-0.83321839899695	0
35.539558646274	-0.25462858561268	0
35.153371753454	-0.19866354103379	0
35.380507666173	-0.64146921251737	0
7.171095641117	-0.8015432022008	0
7.25	-0.4	0
15.261265724613	-1.0045549203206	0
15.223052085983	-1.9822300249027	0
15.908935580823	-1.0873564335477	0
15.139495494558	-0.63932879982578	0
15.352350260223	-0.6297600496251	0
7.4252566073657	-0.61068285564578	0
23.130087373182	-0.87580075110982	0
23.486099013928	-1.3086127951836	0
23.580935392852	-0.72644682127645	0
8	-0.4	0
14.5	-0.4	0
14	-0.4	0
14.345140087588	-0.85072613989515	0
35.619175226501	-0.0019291369495347	0
35.891159214051	-0.14777042660777	0
8.5	-0.4	0
8.2826737962973	-1.0981294005287	0
35.75	0.2	0
9.3246800537518	-1.148328172721	0
9.5	-0.4	0
9	-0.4	0
7.832195572646	-1.1615880380191	0
30.826257138617	-0.35696314224922	0
31.255609091428	-0.59031706803223	0
31.136701877878	-0.23385627131091	0
26.5	0	0
26.324414058858	-0.41890082095302	0
26.766502441303	-0.32416677855617	0
46.112506749274	-0.60663534877479	0
46.376537705098	0.34858185391642	0
45.610378614159	0.26311610571863	0
11	-0.4	0
10.5	-0.4	0
10.608743626553	-0.79952533591312	0
38	0.4	0
38.329659048707	-0.07557506781182	0
11.429875165842	-0.59607395208197	0
11.5	-0.4	0
11.25	-0.4	0
11.186726568883	-0.77709364572698	0
43.945799866022	0.63094153950689	0
44.050677776329	0.18235652249273	0
44.264214437721	0.62934327610792	0
35.087222178439	-1.1836913994163	0
35.787965047302	-1.0596353812572	0
11.937090449026	-0.67325940259616	0
12	-0.4	0
11.75	-0.4	0
24.013470436226	-0.40008280695543	0
24.697646002258	-0.78562522324925	0
24.5	0	0
12.270904419467	-1.0223429006622	0
11.832169268571	-1.077737543497	0
12.5	-0.4	0
31.885949384678	-0.25359510076465	0
31.899300252103	-0.69086961285794	0
32.169548364003	-0.28787895996156	0
11.638455314889	-0.57860788859813	0
39.15354287578	0.25127151148751	0
39.304526840312	-0.13538927561131	0
39.371816686809	0.27866932758556	0
10	-0.4	0
9.9981402869377	-0.98990364988492	0
40.232288419921	0.23990197680325	0
40.044638778788	-0.33525364577994	0
40.684392955434	0.076404146478025	0
43.361817343711	0.24713098218452	0
43.178140514934	0.58494645422585	0
13.303042162058	-1.9321686348684	0
14.124822803471	-1.4739241259628	0
13.316050310388	-1.0556643744032	0
16.639191265519	-1.7061008497439	0
15.61068960129	-0.69811438718765	0
15.5	-0.4	0
15.25	-0.4	0
14.833812883356	-0.75442246413523	0
8.7226995705542	-1.5432795592206	0
8.76452113103	-0.91860620918919	0
15.75	-0.4	0
15.889074891105	-0.65529685489904	0
4.6147746331948	-1.5243636572383	0
4.723006042076	-0.90540005887669	0
15	-0.4	0
14.757438838034	-1.2160690906152	0
27.267795126896	-1.4934455951441	0
27.85880401897	-1.2432837389469	0
27.417674736775	-0.95250095766817	0
-0.099581570158929	-0.5916048997199	0
-0.41934832217733	-0.52007046924587	0
-0.26927899916222	-0.95589617972593	0
31	0	0
30.5	0	0
0.19009807810242	-0.83104971679857	0
-0.41584234870287	-0.18285130542185	0
-0.74014285735921	-0.27507773398372	0
43.665491387939	0.56693048121852	0
43.390153282242	0.61489952067902	0
11.578496990264	-0.8204229631197	0
11.452107357407	-1.2129210043882	0
-0.25	0.05	0
-0.5	0.1	0
18.826953579128	-0.69909657243393	0
18.814383625534	-1.2772373402635	0
19.131477012444	-0.88430993065487	0
16.173235356389	-0.68508924090897	0
27.085813697114	-0.25694908032364	0
26.975444546296	-0.50359759556197	0
23.991121943184	-0.97843531165558	0
16.5	-0.4	0
16.564809579149	-0.87641651407768	0
25.798248765882	-0.4737122180813	0
26	0	0
25.5	0	0
19.40442668834	-0.41445397353914	0
19.25	-0.225	0
19.174128063883	-0.53950027676506	0
20.109398019733	-0.42759791510122	0
19.75	-0.075	0
19.667451158811	-0.44366855853988	0
19.432475407732	-0.72245653725691	0
19.808814640546	-0.87399520937349	0
20	0	0
20.5	0	0
17	-0.4	0
17.159466580513	-0.96793072534281	0
27.5	0	0
27.615108922137	-0.28628536935858	0
27.75	0	0
47.678453634057	0.19225342830109	0
48.24856818204	0.57941720950784	0
19.5	-0.15	0
42	0.7	0
42.429183477356	0.26144029683868	0
35.412988265183	-0.010258600534867	0
19	-0.3	0
31.350297784609	-0.22305910382743	0
27.037060756181	-1.0594301491955	0
26.719962191047	-0.76411134599076	0
26.65985179346	-1.3703683359135	0
19.957486496499	-1.495491447154	0
19.302194465219	-1.8818835569532	0
20.192684967925	-2.564408841513	0
30	0	0
30.320447315291	-0.48757652073082	0
39.934999257028	0.25643693188556	0
23.579087729413	-0.30450083619166	0
23.288713441687	-0.48859574267036	0
35.5	0.2	0
16	-0.4	0
23.5	0	0
23.344673452144	-0.21148606683095	0
20.276721422855	-0.97965760940943	0
3.3474395349294	-1.2739116854082	0
18.5	-0.35	0
22.993731228781	-0.54921621587346	0
44	0.9	0
39.650676011833	0.19922639227443	0
22.307920600302	-0.4451565464358	0
22.5	0	0
22	0	0
27.341426787298	-0.2585824754109	0
40	0.6	0
30.091942619787	-1.2135284032036	0
31.223306645835	-1.5054683033292	0
30.743579116509	-0.8307560237254	0
27.25	0	0
27	0	0
7.4258496923308	-1.2887691056391	0
0.65299823193399	-1.1487959874561	0
32	0	0
43.5	0.85	0
43.25	0.825	0
31.607606922628	-0.29233586588643	0
31.5	0	0
31.25	0	0
39.25	0.525	0
31.75	0	0
1.5	-0.3	0
32.5	0	0
24	0	0
23.75	0	0
34.557838705461	-0.25703615367357	0
35	0.2	0
34.5	0.15	0
35.25	0.2	0
33.5	0.05	0
33.89467067294	-0.47805396413238	0
34	0.1	0
-1	0.2	0
-1.5	0.3	0
-1.2843018847327	-0.3960771695047	0
36.269859875664	-0.084046629910982	0
36	0.2	0
36.273896354455	-0.57323439878218	0
35.776253954207	-0.53312696397966	0
43.75	0.875	0
36.5	0.25	0
47.25	1.125	0
47	1.1	0
47.036713663049	0.62271467571541	0
39.5	0.55	0
39.75	0.575	0
34.923029429751	-0.64161894199168	0
41	0.6	0
40.5	0.6	0
48.573147357305	-0.47840790539385	0
47.663865519932	-0.69707964295384	0
46.5	1.05	0
46	1	0
22.128516855588	-1.0569779353686	0
21.775199909049	-0.49681137560232	0
44.5	0.95	0
44.824346262928	0.48244277202829	0
37.406187498554	-0.80674571609495	0
38.11873858735	-0.73269364600944	0
37.760216106629	-0.17326262513561	0
45.5	1	0
45	1	0
43.453750742606	-0.63280375302584	0
42.906461918129	-0.024969119759373	0
47.450032905464	0.77601739683664	0
46.985975675411	-0.24904804259996	0
41.298175507704	0.063323243567783	0
13.85689432197	-0.83847173861835	0
13.5	-0.4	0
13	-0.4	0
12.752940710427	-0.86762844021077	0
19.409150173672	-1.1864306006717	0
29.761563225382	-0.52291867356732	0
22.764219880903	-0.33942892032682	0
29.215326231293	-0.48191855097289	0
29.5	0	0
28	0	0
28.688649342834	-0.44684349917812	0
28.5	0	0
37.5	0.35	0
36.681805218743	-0.1522912417258	0
38.753162552777	-0.49010725514547	0
41.5	0.65	0
41.885227397923	0.1428824382389	0
6.9514554037956	-1.2386196931266	0
7.0906978082624	-1.8139102296668	0
11.003791895896	-1.1927651832999	0
11.202956649432	-1.7324230403942	0
11.932894801412	-1.6415041333303	0
32.584973181955	-1.4164787188152	0
25.506804671986	-1.0113097135177	0
26.165115187168	-0.94822611157776	0
28.32344825446	-0.85925904415903	0
28.899569329699	-0.96765631047505	0
13.115344390897	-2.951319241598	0
14.073403872138	-2.4180275668214	0
37	0.3	0
3.8815510826781	-1.7197129406951	0
7.9540974618343	-1.8585791843441	0
22.679816071891	-0.77759859879036	0
22.756035907614	-1.3986416937134	0
21.5	0	0
7.2239769799694	-2.8524738099322	0
25.984909892831	-1.6455766905132	0
26.795618479628	-2.2934473247539	0
-0.82097386468717	-0.85432683498929	0
3.0306648925385	-1.9347213971813	0
-0.55574600000431	-1.6057966697977	0
21.292162840866	-0.43307713597666	0
21.422087777317	-1.0446640929338	0
18.338080807942	-0.85609172207467	0
29	0	0
42.401110479421	-0.43993912059384	0
21.825882455462	-2.1692764410808	0
12.521968964813	-2.161799822243	0
12.68244876465	-1.448236545375	0
37.199493672204	-0.18390132773751	0
17.767426182787	-0.93230104455066	0
17.479853223278	-1.489645697177	0
18.11472433221	-1.4796890254686	0
29.444049891194	-0.95259901608365	0
29.252883730279	-1.5759702845589	0
2.832271188283	-1.3132529428712	0
0.3097721921811	-4.5118421226309	0
2.0319767114857	-2.7487572056021	0
0.42578788620597	-2.2141604646985	0
36.844785300549	-0.62602832440223	0
20.763440539089	-0.62387848145875	0
3.7095925328944	-2.9470660584911	0
9.3232841573149	-2.0194648474514	0
25.300075354876	-0.45499552801297	0
18	-0.4	0
11.591804977841	-2.7777036871626	0
37.852280070065	-1.7097344640431	0
5.1481245107242	-2.0881410688559	0
-1.9878388005878	-0.3632321598835	0
-1.1046658221076	-2.8960422577155	0
-1.6565782914511	-1.3866414513215	0
36.651353826184	-1.4277827647085	0
49.5	1.35	0
48.5	1.25	0
48.949745409659	0.51977468296569	0
33.448045820155	-2.2113506906969	0
32.081137828361	-3.183802493499	0
34.454566905967	-3.393976308075	0
47.022991457193	-1.3718436676264	0
[...]
CELL_DATA 1090
SCALARS Coverage double 1
LOOKUP_TABLE default
4.464558458776 6.6213705787354 0 1.0997371514464 0.50249378105604 0.87957697248123 0 1.642223937719 2.8667662898714 0 9.7640202329304 8.1244875943735 1.4382258694531 3.1071807261803 0.56754120386417 3.1478453801251 0.46872804891039 5.2878928510808 0.50249378105604 4.4514309357099 7.333128570044 3.3811477565211 4.5507590091702 0.50249378105604 22.385008573107 11.252978852697 6.7801994846143 5.4233632367316 0 9.8922341201042 9.9578682618632 0 0 0.51148691710822 1.4036334590201 1.0285460236196 4.0034493869158 0.5 5.2149716066627 3.8920410097937 8.6324822596365 8.6772026859462 1.8791348363781 1.118395357285 0.50249378105604 2.6124016005561 2.75 0 2.0468273292796 3.3964988797434 0 0.60375265978084 0 5.5283728477498 11.150953280225 2.2830149660545 0.5 1.5722445073903 1.0382957397914 0.35373843645405 1.9766328134858 2.0384296553936 81.095645454614 0 0 0 0.53704571170138 0.25 4.0792049081874 2.9574179785504 10.949989901183 2.5134198979564 0.25 4.804606275453 7.0701228016883 6.4531473653273 14.435763227039 0 5.4803060499505 9.0607189080579 12.539449820762 11.718298108617 0 4.8403551338702 0.70695838552906 5.0990195135928 1.5297058540778 0 1.1142503947946 0 4.7689087378779 23.926603108742 1.383810020648 8.5679101416177 0.27854825145817 5.2128738557921 0 0.75089433996434 8.2571845752391 0.67725572323314 2.7503093719314 2.3185615317885 5.9085183768638 5.5233115415195 0 10.656611020998 0.20168296250431 3.8459232167637 0.49101201047176 0.50249378105604 0 7.5720358640352 0 4.0644708682999 3.7593797451196 12.584170653488 0.694874980423 3.3096958431263 0.63292504566184 2.9658855887251 0.125 0 14.5258765592 0 0.91803941026448 1.3201272382325 0.87492863521583 0.50249378105604 0 0 0.3782384582356 2.7168606511494 0 0.93741406625456 3.1560037062362 1.3483338620719 12.856399791782 0 0.84811063955531 2.7817904761548 10.892433406876 1.6149977430925 0.44088674043969 0.53196450092899 19.797728510059 0.26137120871466 0.1875 0 0.30333209585599 16.911571116864 14.365868942557 2.3705313179508 0.56790678836884 2.504479822645 0.50249378105604 0 0 0 0.908941670542 4.2523442684314 6.1665342494841 6.689498843541 0 1.2676215487298 4.0610712825011 2.332648936676 4.4979156221697 2.2300859966081 7.8452832009229 1 5.5987302932275 1 0 7.2408454166096 9.1438329235417 2.0907014583339 13.51290918957 6.1758448708632 0.43848104417745 0.68303067266793 0.87649546386585 1.3353467683293 0.94317115900728 11.858384902505 0 0.93235576450744 3.3671389929145 9.1583047376886 0 0.97801833590257 8.4321416810488 5.5395782152558 5.8183617883667 1.8096378297006 11.888022601768 0.43558307236534 15.667379151006 0.36549420727349 3.9568949466609 0.40898519397839 0 16.691479352894 0.67685794862631 1.2086684092162 1.649315368553 7.4418748953068 5.8107636568102 4.9947190178589 24.725088581956 0.5 0 5.926519806313 0.21746599276004 8.2442686042237 0.45100407541506 0 0 0 2.2007085732663 0.50249378105604 0.50249378105604 0 3.7376584729423 3.8192699477617 1.3079135437329 0 0.78223286044135 0 6.876662522853 11.085487880655 11.721509679252 0 5.1472000509682 0 6.298374978082 18.474842958258 0.34381327869626 0.50249378105604 11.669675608146 16.97527882062 4.9315771832317 1.4103085280233 0 3.1780299627831 7.4720272313282 1.2680249983135 0 0.44477438001064 9.1066942881083 0.75413481742514 6.8426237559828 8.8655283841039 0 0.46123388931372 4.68908922961 0 0.12171850829329 7.4959595856197 5.2828094725761 3.1571478212078 2.6637288734558 1 0 6.5 0 0 0 7.9072677485849 1.4111485624953 0.50249378105604 0.4175599271079 0 1.6061961842887 0.46742336440032 0 0.43201188816484 5.9543805298984 3.655501321353 0 1.7807452719964 0 0 2.2736877774699 0.75050628169691 24.225513981893 1.2230302154344 0 0.65297214873821 6.1147307798112 7.4533080344979 62.142951424832 6.240300325556 0 1.3887086441829 23.193906783661 0 30.256253312089 19.353826636524 2.6953230577587 6.2320200444159 22.741015236052 5.8907187593908 6.867138789433 0.375 2.874505220082 0 1.815179191299 0.8717571963825 3.614013710876 21.406735396782 0 29.805159169791 2.1173140377758 3.0920182741969 8.4355557973022 4.3200997949609 0.17541304135494 4.8646855020125 0 0 0 2.7395003079558 0 0.44284777281652 8.7285332419994 8.5849179590844 0 3.6168069265742 5.1370921766336 0.56894932503993 2.1210169713234 0 28.179697553398 0.28020998993697 0.36488169042311 0 3.2295281709464 2.2019942935656 1.9500118535953 7.9800832246099 0 8.1056364825435 20.075218706994 2.4221147032327 2.5626858410932 11.542861063415 7.8277492344857 7.1532253488344 7.1572749139312 0.47198102080949 0 1.7586872887232 1.2916708170168 7.060643180378 6.804195661348 1.7305788759281 1.0929170005262 72.934946977696 0 1.4981113737896 1.3923301148561 6.5047898966331 0.36778932603376 17.867019862898 18.906454638465 0.50249378105604 18.446696346756 2.4260919327874 7.5678395116633 0.86358135956971 0 1.3177995272204 0 0 22.49995646572 15.740720447102 0 0 1.2524708843126 0.54256619653965 32.411234423743 0.62661747995526 160.45559938864 40.500979264556 9.1420253482218 0 0 2.0994257810562 0.60382128960789 1.6272400413682 14.432394548949 9.6002042267887 10.457287123341 11.241271827909 1.4202139154411 4.0479844409084 29.97400024363 3.013351815001 3.0790844261946 13.490793743866 4.7880821116649 8.7582555438778 2.7980658168204 3.8842945593528 7.8066825671453 0.46130677976458 15.34740034444 1.1523530801913 7.3923350842137 2.2516529829989 0 0.25 4.3956151951303 7.3164698988414 0 1.605707423043 0.14841873494372 53.11997150798 6.5 8.0795585639752 6.9168995505972 1.0529007018299 0.23759445252731 3.0563729216891 0.50249378105604 1.6824700514864 0.8113589679999 5.3948366703435 14.302039156005 20.388278292719 0 0 0 10.276070117086 0 2.0835976958609 0.94211207882281 2.0692456052126 1.118395357285 1.7697197439487 0.694874980423 0 0 38.774333780201 5.2621896894139 49.762263294735 1.8454828922464 0.27716239515749 1.4188378009155 0.82321328974345 5.606875383931 0 9.8566020934338 2.9034448954916 6.1908236789336 0 2.7728996699327 0 6.3511162482882 0.89068525825579 5.6647684478688 28.170732122444 2.2353147002233 17.678422799423 11.566475697603 0.45269601072016 2.9034448954916 16.30967008502 1.5945386180161 3.6128290080147 0.29595086105401 20.172911561262 13.247978330107 13.158481950596 0 5.8925904012112 35.195113449137 2.1049564962593 13.113018934877 2.5 10.449850607541 0.96273994028558 38.683121680759 20.489272433893 2.9070970085886 18.623636899993 5.9275845204527 3.3606099668861 8.6842948368495 0 1.1180423128907 0.78152845330026 14.653808082481 0 0.81850955913409 13.869865290411 23.136237958854 3.2277238792506 9.4172015397561 17.949395398432 30.431803643077 0 2.5767799137995 0 2.0189116329352 0.56132432538723 11.829925540676 2.6705389511499 3.5926966364767 7.0909049139444 13.88348003784 15.012131153389 6.2472187730514 2.9132723334035 8.009550856671 6.6853538059051 9.6450460305176 13.469965836503 9.4835258165289 0 2.5 0.75847879968926 9.781604571395 0 2.5134198979564 6.2436411960233 40.843372208757 1.2064661214076 0 1.9641610117101 28.038434802014 11.181182827498 5.5671099669098 85.159245037579 4.3722568695388 27.134177324055 19.768920875068 1.8757056952749 14.981759262188 3.6352367436271 0 0.56639368624652 0.59447604702698 3.1195779121103 3.5238799610397 0.75847879968926 8.4133088868116 0 1.7475710141108 5.1639332952409 0 2.4661777787907 35.859148687555 2.66683606974 1.5024223331101 2.3234694873383 1.2962189072682 20.557857603521 2.6673385615751 8.2901860403104 10.196868161593 8.9105779529829 9.7639874027393 0.46093678077136 23.807009782364 17.536766388892 13.751798840897 42.354152794033 6.9402852078687 1.7305788759281 14.27806481772 18.361950704193 2.4006815870633 3.0729415471769 2.0266061097938 37.336149709104 2.7240583014193 35.225564589321 75.560195365815 0 0 0.1759273172902 7.5634257116414 23.670984754012 2.8351371230107 8.7323798613789 6.404438951521 6.7423613651064 0 9.1236049389038 0.65995623334403 22.263632502834 2.4005669838328 6.9121687058464 58.422864661431 68.032455270305 1.6230744243191 40.998244677807 1.9813690563831 2.4164063102793 0 10.316772120134 9.8992814438042 18.786468682841 51.099081549071 6.0765699744587 15.504385326217 52.883728094309 18.63493140234 22.993653572449 12.628785782948 23.728165211712 1.9475548750312 13.135214047085 39.778674922002 5.7251887508756 0 3.753920768393 32.171772100417 7.4219258964321 70.552883962805 4.0387985538303 3.2784767068447 60.579052900423 8.4362478148591 43.131781110785 7.7009940624904 0 76.96795641526 17.230473797815 2.4686629166754 3.8548287919176 108.31504679784 10.839947323456 7.8309518430338 4.2299592978612 0.96273994028558 70.25307492589 13.291929480266 1.7586872887232 32.411660788315 20.739612374787 5.1068163234222 83.995287282937 31.150627408502 64.598742201721 34.510910290828 11.181840329222 11.974525316861 10.408813772104 1.2449170156739 20.743400038354 2.6637288734558 47.037300247867 8.9596319839691 6.1020901010515 6.8080120849005 10.521757700515 27.624738004014 7.7723340608324 79.61406606674 0.12180590670719 15.916774224193 51.90233719837 57.240907898392 8.7674432971799 0.38316326627737 20.256142215243 10.025918410075 24.484208540549 10.564694411753 178.6981888909 27.539207987599 8.1685666642634 34.656649344059 17.536409095716 0.46447646700442 0 2.1973568254648 16.20946263139 3.7263721808029 10.256578639654 66.766735945849 108.83820258866 1.135926646979 14.295077526682 2.1618843308006 8.5658564015421 0 45.647761137892 8.4064562629642 1.6358266216269 67.40154380576 0.47452371015651 1.2239925839847 25.72500775589 12.583177043789 6.5643070623402 11.697046246761 26.872290590901 0 27.634200461021 46.518470933286 31.186828656289 20.525310205145 11.126291268737 236.88355569504 33.962611626602 16.942959614037 71.772601364398 10.892559790685 7.2104307293149 3.5926966364767 0 0 22.49995646572 0 30.063982496439 6.4531473653273 0 18.722645405064 0 39.093736220558 41.799489884632 97.039951969603 0 40.496968033096 0 30.063982496439 58.140033462147 81.001013680298 42.488188896315 54.542793153355 0 15.271902534723 0 13.024820925322 32.896774138522 8.1476659487389 65.570669237361 24.147621822082 38.717351798523 31.068018652572 58.704880890056 50.975389605292 12.55054571909 52.636525233095 110.00232922487 26.693231980472 16.231199077278 3.6277637707618 77.133884927889 197.24924180174 18.546105605478 30.015750571939 8.5306794075143 6.5355955858191 59.844059098348 63.962866744027 121.87334092526 0 15.624043973125 112.34973000679 144.06280196966 48.40553389906 26.559049436399 22.300281745037 116.99120366907 0 0 33.103300427403 64.992431892714 46.020119926585 0 56.917153578255 110.0211927334 0 43.702075121566 0 69.696732684628 71.834811618109 129.06644265827 34.311993414995 81.966921247079 94.798901003433 44.241471971466 24.28090530033 104.53327040692 105.48205600957 18.392599514364 37.194255548727 28.203847163155 73.922705804643 47.030518011482 7.7432982469564 9.9855691167263 22.340897040595 3.0938516463063 83.819292434554 26.44276608639 71.228817590301 59.923852954302 71.780282060946 346.62622839745 75.859624283747 0 0 0 6.0119236103817 47.219475090256 13.531994332167 191.87955981219 0 41.966357894012 98.517972918061 20.998128421843 72.012645247799 220.83192821433 0 9.1890287902262 58.343579043465 72.814152275501 97.825436555885 0 0 85.08312046252 81.824282153895 46.75637052611 106.19819199864 45.042056465376 10.243292710804 65.858826906041 0 0 99.808082282127 0 223.68923630542 37.690284525187 35.216738947459 43.740718433666 21.901405285147 51.459000693851 50.3405224497 68.326813688877 56.771541274868 44.036776547783 62.302105077282 75.821662876268 0 0 0 0 0 41.213078513092 0 158.8379547306 22.912560353355 0 33.413168374367 22.066080866516 0 0 34.882476505303 0 0 0 0 0 0 0 0 143.72886901509 0 0 0 0 0 0 0 0 0 0 0 0 0 0 0 0 0 0 0 0 69.468713070079 27.952129206912 0 0 4.4601455491686 69.678110611439 146.35327866742 28.832282901036 17.076308619116 36.617860320992 23.628004188087 7.0424093849725 0 36.367992800404 0 47.475495590926 136.42086303121 0 0 67.278112447761 0 0 0 0 0 0 0 0 0 0 0 86.565561545611 0 0 0 0 0 39.006424400416 0 82.339147657798 0 0 61.184236310324 0 0 0 112.64631137187 0 0 0 27.754630260286 0 61.184236310324 6.012495522296 52.798668601834 38.389325963194 135.71529632611 0 148.88521695333 1.3366952456079 58.743488198049 0 0 0 0 0 0 0 8.3774812070357 9.693953608003 9.2611799919266 57.27864583221 17.633219354617 8.4174937312144 0 0 0 92.755340958914 69.076514983515 0 0 69.076514983515 0 0 0 0 0 0 0 0 0 0 0 0 0 0 0 0 0 0 0 0 0 0 0 0 0 0 0 0 0 0 0 0 0 0 0 0 0 0 0 0 0 0 0 0 0 0 0 0 0 0 0 0 0 0 0 0 0 0 0 38.771262792426 0 0 26.245320546794 0 6.4425955118364 99.33765292367 0 32.715682639872 0 0 0 0 103.91241325568 162.04672438173 0 0 0 154.55935290793 0 0 0 0 0 0 0 0 0 0 0 0 0 0 0 0 0 0 0 0 0 0 0 0 0 0 0 0 0 0 23.332772133202 86.850911958699 57.983359606527 37.939448654311 0 0 0 0 
SCALARS Marker double 1
LOOKUP_TABLE default
0 1 2 3 4 5 6 7 8 9 10 11 12 13 14 15 16 17 18 19 20 21 22 23 24 25 26 27 28 29 30 31 32 33 34 35 36 37 38 39 40 41 42 43 44 45 46 47 48 49 50 51 52 53 54 55 56 57 58 59 60 61 62 63 64 65 66 67 68 69 70 71 72 73 74 75 76 77 78 79 80 81 82 83 84 85 86 87 88 89 90 91 92 93 94 95 96 97 98 99 100 101 102 103 104 105 106 107 108 109 110 111 112 113 114 115 116 117 118 119 120 121 122 123 124 125 126 127 128 129 130 131 132 133 134 135 136 137 138 139 140 141 142 143 144 145 146 147 148 149 150 151 152 153 154 155 156 157 158 159 160 161 162 163 164 165 166 167 168 169 170 171 172 173 174 175 176 177 178 179 180 181 182 183 184 185 186 187 188 189 190 191 192 193 194 195 196 197 198 199 200 201 202 203 204 205 206 207 208 209 210 211 212 213 214 215 216 217 218 219 220 221 222 223 224 225 226 227 228 229 230 231 232 233 234 235 236 237 238 239 240 241 242 243 244 245 246 247 248 249 250 251 252 253 254 255 256 257 258 259 260 261 262 263 264 265 266 267 268 269 270 271 272 273 274 275 276 277 278 279 280 281 282 283 284 285 286 287 288 289 290 291 292 293 294 295 296 297 298 299 300 301 302 303 304 305 306 307 308 309 310 311 312 313 314 315 316 317 318 319 320 321 322 323 324 325 326 327 328 329 330 331 332 333 334 335 336 337 338 339 340 341 342 343 344 345 346 347 348 349 350 351 352 353 354 355 356 357 358 359 360 361 362 363 364 365 366 367 368 369 370 371 372 373 374 375 376 377 378 379 380 381 382 383 384 385 386 387 388 389 390 391 392 393 394 395 396 397 398 399 400 401 402 403 404 405 406 407 408 409 410 411 412 413 414 415 416 417 418 419 420 421 422 423 424 425 426 427 428 429 430 431 432 433 434 435 436 437 438 439 440 441 442 443 444 445 446 447 448 449 450 451 452 453 454 455 456 457 458 459 460 461 462 463 464 465 466 467 468 469 470 471 472 473 474 475 476 477 478 479 480 481 482 483 484 485 486 487 488 489 490 491 492 493 494 495 496 497 498 499 500 501 502 503 504 505 506 507 508 509 510 511 512 513 514 515 516 517 518 519 520 521 522 523 524 525 526 527 528 529 530 531 532 533 534 535 536 537 538 539 540 541 542 543 544 545 546 547 548 549 550 551 552 553 554 555 556 557 558 559 560 561 562 563 564 565 566 567 568 569 570 571 572 573 574 575 576 577 578 579 580 581 582 583 584 585 586 587 588 589 590 591 592 593 594 595 596 597 598 599 600 601 602 603 604 605 606 607 608 609 610 611 612 613 614 615 616 617 618 619 620 621 622 623 624 625 626 627 628 629 630 631 632 633 634 635 636 637 638 639 640 641 642 643 644 645 646 647 648 649 650 651 652 653 654 655 656 657 658 659 660 661 662 663 664 665 666 667 668 669 670 671 672 673 674 675 676 677 678 679 680 681 682 683 684 685 686 687 688 689 690 691 692 693 694 695 696 697 698 699 700 701 702 703 704 705 706 707 708 709 710 711 712 713 714 715 716 717 718 719 720 721 722 723 724 725 726 727 728 729 730 731 732 733 734 735 736 737 738 739 740 741 742 743 744 745 746 747 748 749 750 751 752 753 754 755 756 757 758 759 760 761 762 763 764 765 766 767 768 769 770 771 772 773 774 775 776 777 778 779 780 781 782 783 784 785 786 787 788 789 790 791 792 793 794 795 796 797 798 799 800 801 802 803 804 805 806 807 808 809 810 811 812 813 814 815 816 817 818 819 820 821 822 823 824 825 826 827 828 829 830 831 832 833 834 835 836 837 838 839 840 841 842 843 844 845 846 847 848 849 850 851 852 853 854 855 856 857 858 859 860 861 862 863 864 865 866 867 868 869 870 871 872 873 874 875 876 877 878 879 880 881 882 883 884 885 886 887 888 889 890 891 892 893 894 895 896 897 898 899 900 901 902 903 904 905 906 907 908 909 910 911 912 913 914 915 916 917 918 919 920 921 922 923 924 925 926 927 928 929 930 931 932 933 934 935 936 937 938 939 940 941 942 943 944 945 946 947 948 949 950 951 952 953 954 955 956 957 958 959 960 961 962 963 964 965 966 967 968 969 970 971 972 973 974 975 976 977 978 979 980 981 982 983 984 985 986 987 988 989 990 991 992 993 994 995 996 997 998 999 1000 1001 1002 1003 1004 1005 1006 1007 1008 1009 1010 1011 1012 1013 1014 1015 1016 1017 1018 1019 1020 1021 1022 1023 1024 1025 1026 1027 1028 1029 1030 1031 1032 1033 1034 1035 1036 1037 1038 1039 1040 1041 1042 1043 1044 1045 1046 1047 1048 1049 1050 1051 1052 1053 1054 1055 1056 1057 1058 1059 1060 1061 1062 1063 1064 1065 1066 1067 1068 1069 1070 1071 1072 1073 1074 1075 1076 1077 1078 1079 1080 1081 1082 1083 1084 1085 1086 1087 1088 1089 
SCALARS S_Coverage double 1
LOOKUP_TABLE default
1 1 1 1 1 1 0 1 1 1 1 1 1 1 1 1 1 1 1 1 1 1 1 1 1 1 1 1 0 1 1 1 1 1 1 1 1 1 1 1 1 1 1 1 1 1 1 1 1 1 1 1 1 1 1 1 1 1 1 1 1 1 1 1 1 1 1 1 1 1 1 1 1 1 1 1 1 1 1 1 1 1 1 1 1 1 1 1 1 1 1 1 1 1 1 1 1 1 1 1 1 1 1 1 1 1 1 1 1 1 1 1 1 1 1 1 1 1 1 1 1 1 1 1 1 1 1 1 1 0 1 1 1 1 1 1 1 1 1 1 1 1 1 1 1 1 1 1 1 1 1 1 1 1 1 1 0 1 1 1 1 1 1 1 1 1 1 1 1 1 1 1 1 1 1 1 1 1 1 1 1 1 1 1 1 1 1 1 0 1 1 1 1 1 1 1 1 1 1 1 1 1 1 1 1 1 1 1 1 1 1 1 1 1 1 1 1 1 1 1 1 1 1 1 1 1 1 1 1 1 1 1 1 1 1 1 1 1 1 1 1 1 1 1 1 1 1 1 1 1 1 1 1 1 1 1 1 1 1 1 1 1 1 1 1 1 1 1 1 1 1 1 1 1 1 1 1 1 1 1 1 1 1 1 1 1 1 1 1 1 1 1 1 1 1 1 1 1 1 1 1 1 1 1 1 1 1 1 1 1 1 1 1 1 1 1 1 1 1 1 1 1 1 1 1 1 1 1 1 1 1 1 1 1 1 1 1 1 1 1 1 1 1 1 1 1 1 1 1 1 1 1 1 1 1 1 1 1 1 1 1 1 1 1 1 1 1 1 1 1 1 1 1 1 1 1 1 1 1 1 1 1 1 1 1 1 1 1 1 1 1 1 1 1 1 1 1 1 1 1 1 1 1 1 1 1 1 1 1 1 1 1 1 1 1 1 1 1 1 1 1 1 1 1 1 1 1 1 1 1 1 1 1 1 1 1 1 1 1 1 1 1 1 1 1 1 1 1 1 1 1 1 1 1 1 1 1 1 1 1 1 1 1 1 1 1 1 1 1 1 1 1 1 1 1 1 1 1 1 1 1 1 1 1 1 1 1 1 1 1 1 1 1 1 1 1 1 1 1 1 1 1 1 0 1 1 1 1 1 1 1 1 1 1 1 1 1 1 1 1 1 1 1 1 1 1 1 1 1 1 1 1 1 1 1 1 1 1 1 1 0 1 1 1 1 1 1 1 1 1 1 1 1 1 1 1 1 1 1 1 1 1 1 1 1 1 1 1 1 1 1 1 1 1 1 1 1 1 1 1 1 1 1 1 1 1 1 1 1 1 1 1 1 1 1 1 1 1 1 1 1 1 1 1 1 1 1 1 1 1 1 1 1 1 1 1 1 1 1 1 1 1 1 1 1 1 1 1 1 1 1 1 1 1 1 1 1 1 1 1 1 1 1 1 1 1 1 1 1 1 1 1 1 1 1 1 1 1 1 1 1 1 1 1 1 1 1 1 1 1 1 1 1 1 1 1 1 1 1 1 1 1 1 1 1 1 1 1 1 1 1 1 1 1 1 1 1 1 1 1 1 1 1 1 1 1 1 1 1 1 1 1 1 0 0 1 1 1 1 1 1 1 1 1 1 1 1 1 1 1 1 1 1 1 1 0 1 1 1 1 1 1 1 1 1 1 1 1 1 1 1 1 1 1 1 1 1 1 1 1 1 1 1 1 1 1 1 1 0 0 1 1 1 1 1 1 1 1 1 1 1 1 1 1 1 1 1 1 1 1 1 1 1 1 1 1 1 1 1 1 1 1 1 1 1 0 0 0 1 1 1 1 0 1 1 1 1 1 0 1 1 1 1 1 1 1 1 1 1 1 1 1 1 1 1 0 1 1 1 1 1 1 1 1 1 1 1 1 0 0 0 0 0 1 1 1 1 0 1 1 0 0 1 0 0 1 0 0 0 0 1 1 0 1 0 0 0 0 0 0 0 0 0 0 0 0 0 0 0 1 0 0 1 1 0 0 1 1 1 1 1 1 1 1 1 1 0 1 1 1 0 1 0 0 0 1 0 0 0 0 0 0 1 1 0 0 0 0 0 1 0 1 0 0 1 0 0 1 1 1 1 0 1 0 1 1 1 1 1 0 1 1 1 0 0 1 0 0 0 0 1 1 1 1 1 1 1 0 1 1 1 0 0 1 0 0 0 0 0 0 0 0 0 0 0 0 0 0 0 0 0 0 0 0 0 0 0 0 0 0 0 0 0 0 0 0 0 0 0 0 0 0 0 0 0 1 0 0 0 0 0 0 0 0 0 0 0 0 0 0 1 1 0 1 0 1 1 1 1 1 0 1 0 0 0 0 1 1 1 0 1 1 0 0 0 0 0 0 0 0 0 1 0 0 0 0 0 0 0 0 0 0 0 0 0 0 0 0 0 0 0 0 1 1 1 1 0 0 0 0 
SCALARS Velocity double 1
LOOKUP_TABLE default