# vtk DataFile Version 3.0
d-2__ created by libgimli-v1.5.3-53-g6241cfab
ASCII
DATASET UNSTRUCTURED_GRID
POINTS 1573 double
68.380796602818	2657.5921617147	0
69.082710276655	2656.5818992269	0
69.59224793839	2657.6484235857	0
16	2656.387469506	0
14.8	2656.5712286542	0
15.116132407556	2654.8022601888	0
16.638024647509	2655.3608417517	0
7.4786295280963	2630.0486249114	0
9.4670302545046	2628.1666964912	0
9.4543554395156	2631.1516342917	0
51.4	2658.0760457953	0
50.6	2658.0325910551	0
51.04398412081	2657.5403807335	0
18.8	2656.1513556394	0
19.210552457585	2654.2965245707	0
20	2656.0501639823	0
26.8	2656.2139699455	0
25.2	2656.1106026777	0
26.106056821744	2654.9003983148	0
40	2657.4145592668	0
39.377260282963	2656.5606291816	0
40.276466251684	2656.6883333166	0
23.286243008902	2655.0336873299	0
24	2656.0330772269	0
22.8	2656.0382032535	0
20.74395673591	2654.9779497027	0
51.635591744511	2657.5412849398	0
52	2658.1086368504	0
60.450487345409	2657.8567497654	0
60.6	2658.589928319	0
60	2658.5561549759	0
22.045288370531	2654.9011391306	0
24.590298647057	2654.493017492	0
61.108296103812	2658.043842877	0
21.2	2656.0450379557	0
72	2659.2117759035	0
72.373590965461	2658.3213058956	0
72.6	2659.2429335703	0
39.930086089319	2655.8023960395	0
73.4	2659.284477126	0
73.066402898971	2658.6551775238	0
66.6	2658.9238149251	0
66.384284919065	2658.2290532229	0
67.034796450268	2658.3854876775	0
9.7589916934735	2656.3054850151	0
9.2	2657.5872029337	0
8.3634846746577	2656.3828816847	0
10.8	2657.2516584002	0
11.081254724975	2655.8370271957	0
12	2657	0
85.4	2659.9123692404	0
85.617347762523	2659.2886340067	0
86	2659.9448692938	0
88	2660.0558431365	0
87.4	2660.0225509837	0
87.67950515489	2659.3239409945	0
3.2145748970477	2657.4750860987	0
4.5384771098259	2657.7675296807	0
4	2658.8551593774	0
6.8	2658.1437507469	0
6.9778973249922	2656.875846608	0
8	2657.8388613339	0
86.6	2659.9781614466	0
87.005168430852	2659.4215321	0
74	2659.3156347927	0
73.72769745504	2658.5684465324	0
42.389523500314	2655.8426796604	0
41.801912878506	2655.2141625315	0
42.607800345677	2654.9088137572	0
82	2659.7303166144	0
81.4	2659.6989209383	0
81.734410573412	2659.085102202	0
38.727747903785	2655.552999658	0
37.728383866529	2656.2866690589	0
37.160452071007	2654.8995166952	0
101.4	2660.8450708555	0
100.6	2660.7971918141	0
101.0104067194	2660.2666220965	0
114.97662704323	2661.0518027657	0
115.4	2661.6893880025	0
114.6	2661.6382076081	0
95.018825339288	2659.8489945534	0
95.696246192671	2659.745081412	0
95.4	2660.4861290881	0
41.531156722401	2656.1132965288	0
42.309301876849	2656.7851693698	0
41.656007115648	2656.950477452	0
68	2659	0
67.4	2658.9673492536	0
67.704881112961	2658.3164903833	0
38.526669509463	2656.5941089615	0
13.2	2656.8162408518	0
12.509288722223	2655.802213137	0
13.755858905996	2655.7208204181	0
135.71438567466	2660.6637733031	0
134.86289270608	2659.8466793429	0
135.94977476749	2659.2332074375	0
52.199777110586	2657.391724175	0
52.736269833309	2657.7369106275	0
2.8	2659.1986115642	0
43.714565083069	2655.0056244987	0
44.8654948438	2655.1346575895	0
44.31377676269	2655.8524986495	0
34.141433258325	2655.3998905134	0
35.301022366638	2653.7217358526	0
35.693305431928	2655.7174486723	0
51.796061892812	2657.0428744048	0
52.26390312399	2656.766328274	0
55.659770937729	2657.6370193716	0
56.325427100043	2657.5431594882	0
56	2658.3308195292	0
39.680685010439	2654.8084877444	0
40.799387147364	2655.1113892089	0
50.790691233255	2656.9678646157	0
50.467703771439	2657.5356989392	0
49.4	2657.967894219	0
48.6	2657.9250865111	0
49.071864359908	2657.2763622028	0
53.016461513935	2656.5511068119	0
52.739836133998	2657.1727610947	0
59.925346310173	2656.9062491002	0
59.771798573529	2657.9143420493	0
59.091426157492	2657.7292394847	0
41.4	2657.5087136733	0
41.031658529055	2656.8014615298	0
40.716188945717	2656.1008955361	0
43.663301034306	2656.1053205926	0
43.558747008637	2656.9444184675	0
42.996845118713	2656.3980639865	0
45.4	2657.7505776045	0
45.754505157834	2656.8707841781	0
46	2657.7846016577	0
42.6	2657.5857023374	0
42	2657.5490655619	0
44.309812647654	2656.7954777526	0
44	2657.6711881469	0
47.712193811945	2657.2665966879	0
48.366345910142	2657.1433467356	0
48	2657.8929807302	0
43.4	2657.6345513714	0
42.973958112062	2657.0689292771	0
50	2658	0
49.898678349316	2657.1437402338	0
51.357628492192	2657.1013083553	0
63.567967455423	2657.4913987413	0
63.665468228518	2658.2435617613	0
63.022348179678	2658.1258229577	0
45.015485363876	2657.0699990399	0
44.6	2657.7052122002	0
64.339201779088	2658.0772993409	0
64	2658.7805721473	0
62.51777458895	2657.3945997644	0
62.384586909558	2658.1789656142	0
61.785486701404	2658.0077653768	0
46.6	2657.8171153795	0
47.075808808084	2657.1384847305	0
47.4	2657.8604670084	0
68.993669150642	2658.3874364332	0
65.640555185186	2658.2398488677	0
66	2658.8911641787	0
65.4	2658.8579865693	0
70	2659.1067467824	0
69.660874580845	2658.5159883923	0
70.321227755854	2658.3678628553	0
58.377561212572	2657.8063677764	0
58	2658.4433475968	0
57.720828422517	2657.6320934593	0
61.4	2658.6349594432	0
41.673392427109	2654.1056404418	0
116.51394395909	2659.3056951204	0
116.24307962431	2658.569273975	0
116.99423648561	2658.8549342201	0
102	2660.8809801365	0
101.67911624175	2660.1828677857	0
102.31965936973	2660.3237852318	0
74.443446706507	2658.6326315933	0
75.059575870597	2658.0948654423	0
75.046626142963	2658.8099916347	0
81.059830219263	2659.141738331	0
80.6	2659.6570600368	0
54.241558061877	2657.5768809445	0
54	2658.2190796536	0
53.475735211836	2657.421871818	0
76	2659.4188708791	0
76.477496344899	2658.7721361744	0
76.6	2659.449819093	0
52.6	2658.1417696913	0
5.2	2658.5502699643	0
56.6	2658.3645779494	0
55.4	2658.2972975665	0
71.565933949019	2658.492919254	0
71.4	2659.1802671672	0
74.6	2659.3466056186	0
75.4	2659.3879000532	0
77.069119411692	2658.3074439399	0
77.058433442401	2658.9506100232	0
57.019602558502	2657.7219988525	0
57.4	2658.4095891765	0
71.65656602929	2657.63640258	0
74.225105931089	2657.6750199675	0
53.4	2658.1859468126	0
79.824396633126	2658.2239616034	0
79.74241373193	2659.0688815822	0
79.094654761697	2658.921945108	0
1.6528608239529	2658.1213213099	0
1.2	2659.6565478132	0
0	2660	0
-0.32802401054307	2658.1874414672	0
109.00093763903	2660.698823643	0
109.70784523881	2660.5478786358	0
109.4	2661.3193570356	0
118	2661.8608184355	0
117.60177400826	2661.1368422064	0
118.34297724557	2661.066772012	0
111.65293607445	2660.6775261476	0
111.4	2661.439656349	0
110.99299004164	2660.9245845984	0
2.5010142263113	2650.0913242347	0
4.2521833629412	2649.0475747195	0
4.53020295093	2651.2141532879	0
112.6	2661.5130929352	0
113.02229083419	2660.8440944174	0
113.4	2661.5626525793	0
110	2661.3550336916	0
110.41561280576	2660.788072963	0
62	2658.6687327862	0
59.4	2658.5223127622	0
58.6	2658.4771898105	0
84	2659.8365357823	0
83.645087925073	2659.2952572376	0
84.315837812528	2659.1286222032	0
92.985168835621	2659.7394782539	0
93.390789395245	2659.066931336	0
93.614953276061	2659.825996405	0
64.434614421043	2657.1992962804	0
65.099858675068	2657.6841416063	0
89.025969627711	2659.3784277554	0
89.768477720105	2658.5646239425	0
89.711011634436	2659.5476848109	0
82.426526900943	2658.4452119753	0
83.513074575959	2658.5398267341	0
82.990249003389	2659.1780561377	0
88.332526746704	2658.4769130378	0
88.330589689689	2659.4632997508	0
54.6	2658.2526016162	0
54.95039204814	2657.4710101907	0
75.702157039627	2657.7752607229	0
75.72824879193	2658.5946011925	0
86.351658265037	2659.2714288655	0
85.88340000841	2658.4898450572	0
63.4	2658.747020339	0
65.01517458611	2658.3343685927	0
64.6	2658.8137497567	0
96.6	2660.5576634984	0
96	2660.5217811606	0
96.441392799321	2659.8156340128	0
91.722855391311	2659.4954169398	0
92.36613225656	2659.783644832	0
92	2660.285349992	0
90.343356310184	2659.5001454972	0
90	2660.1694901433	0
94.277027676141	2659.56011813	0
95.106396145912	2659.0132583848	0
68.33485126879	2658.4651030792	0
68.6	2659.0320240347	0
97.091902953267	2659.2645079036	0
97.061968416225	2660.0183236919	0
99.4	2660.7253144591	0
99.083586055624	2660.0571232936	0
99.719990826381	2660.2050562455	0
99.758967587381	2659.3545428534	0
100.3524841352	2660.1272915752	0
62.6	2658.7022845946	0
91.4	2660.2505920374	0
105.00878134047	2660.4592712786	0
105.69433200035	2660.3848738227	0
105.4	2661.0826800565	0
69.4	2659.0747227477	0
107.69249401284	2660.6498950281	0
108	2661.236111505	0
107.4	2661.2007123634	0
80	2659.6256643607	0
79.4	2659.5945745301	0
70.975410988543	2658.632551146	0
112	2661.4759232021	0
112.35645113055	2660.8749024753	0
107.02382063835	2660.4866502459	0
107.72114738644	2659.7568128116	0
70.6	2659.1382555187	0
104	2661	0
103.4	2660.964294041	0
103.67564409373	2660.3875083874	0
114.34874248731	2661.1235602458	0
113.7761192919	2660.9631807545	0
114.39054485602	2660.3652331249	0
110.30179945958	2660.1821417035	0
110.6	2661.3913005448	0
110.90017728219	2660.3259139556	0
111.43692636475	2658.7759711047	0
111.35769391001	2656.7363348934	0
112.91807169792	2658.2277892289	0
103.655113367	2659.4360523488	0
104.32708705459	2660.3012096027	0
77.4	2659.4910833781	0
77.744541196105	2658.7399975893	0
78	2659.522031592	0
102.99550972154	2660.2380755555	0
78.407068937857	2658.9723260948	0
114	2661.5998223124	0
46.408900307627	2657.1996970542	0
117.4	2661.8209048943	0
80.398093082673	2658.9953465423	0
55.621497616118	2656.5424242438	0
82.6	2659.7621823648	0
82.350952550718	2659.2373377175	0
116.37899270913	2660.0406137818	0
117.03858264343	2660.5584781708	0
116.30474447125	2660.9776666175	0
78.6	2659.5531214226	0
83.4	2659.8046700319	0
54.175675281209	2656.5222192732	0
84.999206686945	2659.3860720166	0
84.6	2659.8690358358	0
50.456441190217	2656.0717366995	0
49.093463141718	2656.2086987541	0
93.4	2660.3676636409	0
89.4	2660.1353960413	0
88.6	2660.0899372386	0
47.722018447069	2656.3055420364	0
91.004782648334	2659.6625901108	0
94	2660.402940919	0
40.6	2657.4549111553	0
92.6	2660.3206272701	0
90.6	2660.2042480979	0
61.309634198283	2657.1309999565	0
94.6	2660.4385929915	0
76.405959253297	2657.9275833465	0
[...]
CELL_DATA 2885
SCALARS Coverage double 1
LOOKUP_TABLE default
0.73506382235482 0.77171441606999 0.46948330069306 -1.4830403762645 1.0757082343285 0.96682913312816 0.59033214421734 0.36908586169816 0.9576333040557 0.8031475758495 1.5321703815843 1.6152562791654 0.52381262812551 0.99575437495944 1.0904966397272 1.0615031569049 1.5297407730315 0.31908768794571 1.143742629265 1.0712000576149 0.4242073378663 0.85335361506175 1.438666339857 1.640730932519 -0.054958936994868 0.74312397709686 1.2161162298891 1.4723058607371 0.71539630436056 0.47439428067985 1.4367250444216 0.39164035934278 1.1138579858276 1.0414493592772 0.99720646377903 0.64156020043414 1.6730689943628 0.48592582747885 0.49397299158038 0.90810247397035 0.1686336623665 1.2066454569342 0.51913926955318 0.38141104339069 0.35415914614985 0.72891746461544 1.1672714411552 0.30764004816058 0.89975056730502 1.046955005376 0.66101424601112 0.93179433427825 0.82093587742075 0.69747749775521 0.69887647267068 1.190894325984 1.1565899437461 0.74437298735992 0.81475129773222 0.94366474979165 1.171770760323 0.54988488418735 0.93344434722298 0.91308384389094 0.84815018571649 1.3575729266974 1.2108868484045 1.0112529835339 0.84573738484316 1.3321377467739 1.0395113223366 1.3072532814662 0.97690837412754 0.87342244218092 1.0257972302788 1.0604327202977 1.4615971496944 0.76629426685645 1.4424438847938 1.0736735836085 1.1831023539342 1.1119663605948 0.92768994526704 0.97651290273526 1.5247969401836 0.95454078009863 1.1444057011958 0.41305014929451 0.42736802662526 0.86007238221566 1.0768284662501 0.83292981996098 0.86053175473401 1.2278440342989 0.96922542379357 1.7328943718234 1.5097073265922 0.59346032655964 1.5218662268044 1.5892808861652 1.5985095075299 1.1763611067568 0.9192084471999 1.1430368991456 1.4192441370846 0.79556021176282 1.023215920937 0.88702827922476 1.3783332737278 0.83235760671257 0.086963536988466 0.10439588840475 0.93623021410917 0.69230762728815 1.0003551101865 -0.75244004954497 0.9919826019097 0.94289929536997 0.083829056270341 1.4377860929901 1.1529053437144 0.87754368044457 1.1273489645059 0.86568640277734 0.74444551162246 0.94131619812361 0.83080224893875 1.6436018480386 0.75395987444429 0.86618189188336 0.78603873777401 1.0791851443881 0.73814295682102 0.85701787618681 1.6801261791125 1.0401509210893 0.7793396833482 1.6478008360805 0.97505029225982 1.5948539728237 1.288126688279 1.1548230662391 0.93871375111749 0.74885087974399 1.4194965874359 0.92941594861161 0.79758277727018 1.7114270485219 0.89821526593826 0.86715197945231 1.0832820758287 1.1581872433967 0.7390673572108 1.4203107165958 1.6057166797577 1.0334689557952 1.20938310267 1.4589879254368 1.5750474795777 1.7001806478434 1.0735486398365 1.4660359049252 0.91812869209436 1.4064601048083 1.553480624545 0.96923552885266 1.4942260323244 0.7734486604747 0.81082200885535 1.0840070986229 0.92368484949316 1.1616798970018 0.82920128515083 1.0450032447481 0.33144742969092 1.6582996355322 0.72191890637276 1.4177893242206 0.9665493182859 1.0719147477152 1.2736712655528 1.10647561025 1.1451245352005 1.7268557509671 0.912152871294 1.1796853403011 1.5274265726381 0.67356986369993 1.1212755973996 1.2861708611388 0.80024349582017 1.1472996849993 1.671322280054 1.0341447875055 0.78110053506505 1.0620689705558 0.93856675816853 1.3025097179387 1.6567883430345 0.67674972930304 1.1946504400133 0.62749659080554 0.98004621348813 0.98704678525263 1.2001466555147 1.0330656727807 0.73852865603594 1.0106709242993 1.4253377185253 0.95700487925829 1.6583743330435 0.64750957319746 0.77005442266481 1.092401040012 0.86891444276886 0.89197277838672 1.1541603905789 1.115199452983 1.3975491612902 0.81666399380912 1.1978194018218 0.86536131605368 1.4265699906392 0.89907855614217 1.4600459380934 0.6848517279914 0.88339097821732 1.0978425005921 1.6703642180044 1.1624986236086 0.78504224991031 1.0473769656389 1.4384989735759 0.69966287527101 0.83706925330402 0.74592737191318 1.0723070497567 1.3238782691322 1.4223253696342 1.6467109302477 1.5471432234848 0.97041296129036 1.2179729877991 1.0358155746983 1.0704804866381 1.5205453539354 1.1523702385004 0.85602003557366 1.5006925588327 1.3957303742203 0.74873676935946 0.80844251678664 1.0187682103837 1.1110651565677 0.71119868438322 1.4120984004113 1.1659997050496 0.9796748434473 1.1101497027805 1.3945321760034 0.64118736869969 1.05437831441 1.5797009823407 0.90064245442782 1.1713348025495 0.9682016262017 1.112306226736 1.3207998670361 1.6113679481394 1.0717268105837 0.72178965292784 0.89132868388355 0.77034639276859 1.2470085393042 1.0192601608045 0.69398452810596 0.91856318541996 1.4082679116232 0.97228171509069 0.88498161869306 1.2982330202186 1.1375691830803 0.84979087515892 0.81561652271745 0.96293228650276 0.72248165255758 0.93254387189296 0.57785984905907 1.4748574583859 1.0966929941198 1.2144972187901 0.90147752419365 0.90297051321134 0.82606201042697 0.84716454375841 1.4867741883474 1.3502643613158 1.1921596066145 0.82229917510375 1.0108811304389 1.2339432620767 0.78287311256465 0.61929438684819 1.2042136352521 0.85457659466582 0.35604437386858 0.73705915137301 1.0093590271771 0.77049040601918 0.55663800532476 1.1499759992998 0.68047024208664 0.51111894976908 0.97884445454611 1.1970148560691 0.86610652052376 0.53247640390531 0.92200246580787 0.52381239997493 0.88682579050539 1.1717471929118 0.84872778099121 -0.022470671419566 0.8343539867697 0.70421088694363 0.89599937095357 0.56620797752724 0.79889007453214 0.98529668158397 0.3609794014731 0.70737295399844 0.59485456813979 0.50513983165981 0.8240090557809 0.71892219691936 0.65375339965159 0.70669115938113 0.90507325053248 0.40882214938103 0.44770451474657 0.74913805311189 0.91746318531494 0.83918159101848 0.95474192978384 0.80596806235339 0.19934443055961 0.15472634664053 0.91295647694241 0.4850502030093 0.79751484975402 1.1297458673388 0.052215980595711 0.70321414747143 0.749480093674 0.88966108010324 0.3186937953816 0.5284390383937 0.64076036425058 0.81693069128643 0.57900379091627 0.079553431936113 1.2755177155078 -0.10491625367343 0.26264505769168 1.1507260780989 0.76170804550081 0.91109987071121 1.0844320948526 0.76674222361763 0.79137012044483 0.66950622732049 0.8795013366729 1.2612978457602 0.71103438691958 0.78423621947608 0.64494460461327 1.0524353048905 0.88825038886815 0.63171024604811 0.95604719179576 1.0134669556325 0.84774948025926 0.71279205676196 0.71422519873763 1.1031412091636 0.88867791272865 0.73123196065255 0.72784134253478 0.85804830981519 1.1834193168538 0.66767908201524 0.81951267856522 0.72640639875 1.0741704781618 1.0490724818537 0.92909136667222 0.7528406198981 0.72694196059561 0.70336235164269 0.63270009598413 0.82098784449331 1.0992628496425 1.1143371812398 0.94509962382182 0.60148918480377 0.71505910547283 1.1097930764044 0.95025687342271 0.73415304368564 0.74501568138964 0.57509831317497 0.83650789215236 0.72243000853446 0.48114490584597 0.59008629891889 0.72311352461088 0.69964613763242 1.0072801883676 0.99108160926414 0.86896168502185 1.0865936006285 0.82331755911222 0.88446387071903 1.1388711110649 0.69236752590014 0.75410466883247 0.56772977665853 0.86058451677344 0.52775409341646 0.49132756502422 0.42171955639054 0.66870879440651 0.46419371592032 0.52714787673685 0.69684471887742 0.53426465539422 0.51528891843252 0.49660028900881 0.71037775077836 0.78144694437048 0.59574165673568 0.40291666623871 0.64201516609966 0.43825814946206 0.56414967015514 0.59108449620389 0.6860400183562 0.84094294748089 0.66837945542845 0.66347405926905 0.61503528612396 0.82735694597791 0.84644692158763 0.72239053130958 0.75775900660208 0.84319152576975 0.69421877693756 0.61996815650438 0.68564175309255 0.97217607078693 0.35341225527254 0.45701357298363 0.55429662044439 0.9016515961813 0.78637059665995 0.66675060427384 0.73779135381492 0.60931134979126 0.5973112270694 0.96081512227632 0.72017358720503 0.84165610614145 0.63367618132866 0.77691516885042 0.7889155926494 1.0104888256312 0.62310047256822 0.85065595664161 0.6028331760855 0.65708268046303 0.66316614468665 0.61675202657442 0.48267834714701 0.73526783439426 0.85545533368622 1.0190602941477 0.9696618722408 1.1342125134615 1.0124671587329 0.79831706489058 1.0864069268859 0.93946761455853 1.0426141580944 0.85735276841885 0.52470989636111 0.84593979561886 0.77891731946793 1.0310549235029 0.71574858757773 0.90351524894013 0.8698368354664 1.0563830939718 0.871544200127 1.1591423064355 0.92956719987866 1.0924336148539 0.87573488324031 0.79006497417024 0.89486952364635 1.0178526748713 1.0393508285288 0.92801820074339 0.83067285185774 0.655563362829 0.69074805923824 0.85590545671264 1.0690449238184 0.96034852964149 0.76111820056333 0.8034258215407 0.72662595406982 0.5906506105005 0.59263957714007 0.49721182132897 0.75967445060137 0.76711642442411 0.65325948621146 0.86712292420303 0.84352358507948 0.85356031593867 0.6709895230981 0.75418904545356 0.66435977405449 0.81888156742101 0.43206205869228 0.6775078157511 0.64478260175925 0.66302817938461 0.69972742761384 0.80607200757754 0.73767005788874 0.65747315114695 0.60684239793504 1.2607160438314 0.57528814586757 0.12483228827415 0.60588203635083 0.7166530814832 0.54103232427868 0.46238637008094 0.47548042782375 0.76914940889871 0.616219334064 0.75488911965148 0.69133156821663 0.74789940961447 0.71500591928148 0.59195857090419 0.63431633336567 0.71982503322688 0.38116123484734 0.7838722353606 0.63501597427188 0.46929342470603 0.64393748071507 0.60041240604442 0.65918447947893 0.6032345585738 0.52653652668639 0.76711977860249 0.6590302263787 0.52794748445561 0.9723025051198 0.018075414633525 0.6226873201088 0.38776529311763 0.30077451374754 0.0048702524449938 0.66254427972785 0.65486256960708 0.63361755714036 0.58397747812802 0.66134719896104 0.60608911074666 0.59220778222428 0.79741386424466 0.60644128906991 0.67928299983584 0.61191279599602 0.7119386736756 0.732190963004 0.63922037307506 0.51311719941944 -0.020408371686598 0.9217940602099 0.29902668223342 0.80394837700901 0.41975449919339 0.6429203489651 0.60629621370073 0.27362904965527 0.40360858193122 0.57405157900445 0.53214661767933 0.33481750143744 0.59669574530818 0.5541731942763 0.70199883523037 0.50512305942452 0.64229620904363 0.76078803915809 0.61298663163785 0.55096517026566 0.48328013317422 0.72290120187001 0.67194588372153 0.54263889532337 0.66677879327891 0.51645623358204 0.54712736741254 0.28033221074594 0.51980695347479 0.59994653235285 0.59289069232441 0.73112937450007 0.6798622350383 0.48742097254765 0.59055223589884 0.4496722804856 0.51513417047316 0.63198953465221 0.61093998650006 0.65658825904532 0.63852327468326 0.65515537274667 0.61675837622782 0.59313530962606 0.77030059900526 0.72147386565689 0.6231141340743 0.59359025062596 0.56746361360696 0.72960604864057 0.63254450771434 0.57772652616369 0.60112279019363 0.58759854461066 0.59290086054015 0.6751382606732 0.59117696175108 0.63102940599866 0.57154560250047 0.12968185465634 0.57189702865589 0.51307746058908 0.65334928228805 0.61296489649106 0.28805393886881 0.60690249437956 0.61251873451552 0.65802396529453 0.66993427187542 0.57693577838656 0.60271543724401 0.47515245614358 0.4365531735229 0.44206881327739 0.32292312537958 -0.10044006004256 0.60448518231024 -0.11848074197369 -0.78318296774088 0.54610480979183 0.42245045974761 0.411843204326 0.54865778274871 0.36351724890229 0.4923379977025 0.54963840895791 0.50367310626092 0.29098366787326 0.4181048997477 0.60566591317267 0.60270563910494 0.46882795170294 0.61992292602558 0.6893552644547 0.81645475282205 0.32823499972531 0.085893917438599 0.97845013757454 0.14381393840608 0.039197424772474 0.45153472329257 0.51519375132316 0.079463231573675 0.11224623740002 -0.11638410301786 0.031397877734423 0.08176338428004 0.078532870984908 0.21142519988065 0.41077738834531 0.73390410193645 0.59246703255174 0.50959849647416 0.54431910214337 0.32592533497609 0.56077684746126 0.61434231420798 0.62205924242439 0.082162717785718 0.69941237170764 -1.4363437105867 0.32442441360978 0.1430624042264 0.45538407589774 0.62693473315783 0.5938920257629 0.24781004850175 0.50227573392314 0.24423364211278 0.5857147843407 0.28660561353921 0.35653750927424 0.39552325410407 0.57679689854903 -0.073825746043722 0.019193551532006 -0.10363893512267 0.33472217823048 0.54291036152855 0.37836903387025 -0.055012759788322 0.3529033160176 0.5540742040355 0.419723347076 0.1657748076482 0.75729151361825 0.62599295187148 0.62287368152863 0.53066702426217 0.98268795289371 0.43571538254148 0.3412561684035 0.40055206905157 0.38170977683811 0.42567234167651 0.55451995465591 0.46223253504828 0.50367384395247 0.54194215407556 0.34886082031956 0.80403388226593 0.22060710051724 0.45500067199178 0.24929275177957 0.43487315569992 0.60807981481476 0.39365627831798 0.33294572478986 0.50299805723854 -0.010413500350487 0.3535123741095 0.6414193805337 0.54946439355133 0.29965735589263 0.50405686139487 0.46083975082923 0.53182446126329 0.32040982728365 0.59201969073467 1.0317713487343 0.62327449954365 0.98309435241762 0.63987630789169 0.59442178335345 0.54082330851658 0.4537803082461 0.574252652982 0.59904864432842 0.089055853444462 0.21341618172451 0.44253712514872 0.40784674469106 0.36786399895205 0.12300139663281 0.6113661065375 0.18456593564505 0.37685854084839 0.30762769900201 0.68081599377067 0.67163555747814 0.62063243787843 0.52306380860484 0.69873009904453 0.68231613077527 0.23018064446769 0.30563430073804 0.75123623132379 0.63407551704956 -0.223109494802 0.0011450566515168 0.62128089236662 0.61460352297818 0.41650818595275 0.2628408391769 0.40887979104816 0.47326548235805 0.21669125516322 0.21651300129783 0.52926537015923 0.9524828885609 0.44392434185114 0.27183456887115 0.63415308487757 0.27995438657535 0.5108349258001 0.03531405360478 0.30552582091871 0.0031538949862316 0.65971084039914 0.42710007577523 0.69199425676962 0.07312054816003 0.0041917691826791 0.38803113359324 0.58985173942923 0.50759362378696 0.67808787693323 0.31486114242479 0.42168927444077 0.19559708595046 0.2653204787657 -0.079264306760456 0.75121515526171 0.54539922932838 0.64871865375081 0.5896897397207 0.732593014234 0.6069762873129 0.35108975550196 0.61312139869491 0.3646036801659 0.1349515543018 0.6625253191322 0.52456544504157 0.67202834375162 0.62113503427083 0.62302299857817 0.62269411997656 0.077818816297137 0.28397976008533 0.23451281079976 0.66346093729454 0.33910410485042 0.57358262791545 0.29423373308645 0.35506190640648 0.12364357851989 0.14161940276189 0.056438414828921 0.2462780457739 0.22158716010744 0.28163126028145 -0.009423186600629 0.56874554908435 0.0067124135555481 0.41740979749259 -0.54251032152527 0.56339340950406 0.96481422336978 0.72862370882565 0.7855637742984 0.14570471514013 0.85699696393802 0.51776239675164 0.53073465367734 0.83441816008967 0.30098479344374 0.32287240219667 0.19872300851572 0.53810298610026 0.29557469273061 0.14850457952207 0.41313356163871 0.68613392012787 0.043480300911606 0.14033513081012 -0.054725143193054 0.024933456766767 -0.037095005829331 0.3916214419536 0.49822223917038 0.68710668201746 0.97992372790691 0.44724175296276 0.3809373304988 0.21847422732475 -0.069596697925139 -0.20943580079653 0.26424197453563 0.32302269861622 0.19225563107714 0.32962988593473 0.51469467144225 0.27858293704531 0.033772927438833 0.14703589661144 0.02228773324259 0.029537804775747 0.53124813405195 0.27512835304688 0.53987964727579 0.071750168280816 0.44069627985959 -0.076552205537373 0.33162651031246 0.11756675171038 0.097002731666184 0.50214464854914 -0.2439682828207 0.12904832662394 0.25930421243729 0.34281302717545 0.24373814531607 0.63601131050541 0.93828373375974 0.60494825765026 -0.040299432512355 0.086110123258045 0.54561915552417 0.45915553564187 0.45124536034724 0.45334231352662 0.57356127043285 0.26126839802714 0.17035721717579 0.23184055860657 0.35411385843816 0.32522479150177 0.19660914546012 0.30683065572418 0.097031811633239 0.1966074058053 -0.074854960246385 0.33491055169622 0.35323952799697 0.52819442487589 0.88009937272062 0.7430426857406 0.21883373545664 0.29138482819328 0.18711664789225 0.087896793889891 0.29617484296416 0.60392633586984 0.61029901343182 0.52206477393024 -0.16065291127054 0.026044527649972 0.22961432981944 0.73740619526535 0.29173719612409 0.32793139907953 0.31934277501823 0.022059141828309 0.033998094971551 0.60694906544168 -0.059602240127194 0.32389384260802 0.49690833334483 0.47737811809025 0.31917100796789 0.12152685424578 0.58095535412124 0.2927357597243 0.31908049492898 0.64602212228051 -0.12755374442465 0.093235678139283 0.9085795440745 0.27576595735475 0.28176067473518 0.31356898328589 0.58734760813053 0.4659162942168 0.20313860154745 -0.10644054231607 -0.14524755037314 0.38096669779771 0.77331267203664 0.12006892534145 -0.13849111759386 0.51736052031859 0.49796717494862 0.23470221876815 0.2281266563483 -0.11393982904694 0.25217725408564 0.47216238496561 0.26339378604802 0.18972177220171 -0.067983938797236 -0.21887431603778 0.47197628150149 0.90691061053701 0.44197890487159 0.31356529429904 0.25160055990187 0.4407281163807 0.48850474795657 0.10635136283042 0.42778006374024 -0.2161035543539 -0.062244851136856 -0.2581576199121 -0.17982233432222 -0.044571999464679 0.11981826510913 -0.31493894610184 0.27251413621537 0.11804113878622 0.88347250258505 0.95502290818152 0.28529249770389 0.26263460196375 -0.081312285872287 0.47598614934006 0.37130159317598 0.22357549218737 -0.090328567713963 0.097775499615569 0.31497811022916 -0.11173446603184 0.1310560654448 0.073457582622112 0.19939265600553 0.12349919997138 0.26564897985015 0.15365491263932 0.2939435115815 0.18667161405392 0.64475886131395 0.12473348857488 0.00086834954045562 -0.10091082323725 0.12473445554721 0.22570833082537 0.30629499411243 0.29433921876718 0.26979842078124 0.62649743830678 0.48770402447801 0.59340529661644 0.29476736110702 0.33378059290945 0.41068817757808 -0.075604843254081 0.6034382813886 0.10610525334137 0.35005695344359 0.15174290112433 0.082169110362862 0.32238805387558 0.1253842926429 0.40830469698174 0.059395037402889 0.20439971496906 -0.0012785467659686 -0.020156764200679 0.52509223858108 -0.33803960572122 0.34317778141031 0.089502176379894 -0.059665053360402 0.4937968332874 0.21470488479791 0.87057006176036 0.44347126251055 0.57769436098947 0.48073947344567 0.38352191641118 -0.087260251823564 0.37213701493049 0.33576823510538 0.52516697962282 0.29371164658302 -0.044221360400363 0.49498710444758 0.36042325548588 0.4282235192142 0.59296624215396 0.39655502740476 0.20279176639794 -0.22027101414363 0.29075886128832 0.53893205992526 0.45393341582863 -0.068718614670156 0.25678987820701 0.028090517478528 -0.024278775081269 0.56072114091435 0.44969787199643 0.61662816893029 0.56474335724208 -0.062687392049298 0.5083761388118 0.49403845317406 0.27903894439469 -0.062638332714114 -0.12068498627565 0.023242232323171 0.5399930361323 0.12202038534875 0.10374591632558 0.17031060836205 -0.019373970324069 0.23090692941331 0.14488940240793 0.20734593567903 0.3836157796507 0.03648385351325 0.099500256314285 -0.14995296455 -0.16119485111388 0.42513673169483 0.29744393020865 0.18146462258223 0.0010178709836836 -0.36810943741651 -0.023823159183267 -0.10619620732206 -0.19192790639242 -0.32806957982041 -0.18671026077428 -0.0075570864950904 -0.16082965438039 0.052078819744936 0.51907030005625 0.18351581201442 -0.18744736474037 0.23371674164138 0.40264384337319 -0.10889112906456 -0.50322270413959 0.23294191238925 0.48936749122782 0.27106395698641 0.10031994483455 0.43182548969528 0.43029693607064 0.36430655198935 0.14004220442619 0.12407117248322 0.21327389546519 0.54063422557189 0.36645391744485 0.23109103784621 -0.18671845167016 -0.082635797816444 0.021373968865396 0.19978844435932 0.47551329744502 -0.052579094479885 0.29171452529247 -0.29533053318745 -0.2533878621963 0.56100256939282 0.3193096276689 0.04922607140528 0.25782293715568 -0.127522553969 0.0994713396321 -0.45046960862401 -0.17317721245192 -0.57164562233368 -0.47196352497341 -0.33442713620592 -0.79965804628729 0.14744659477204 0.1274